<?xml version="1.0" encoding="UTF-8"?>

<!-- generated on 2026-04-22T11:15:37.505103+02:00 by Eclipse SUMO sumo 1.26.0
<sumoConfiguration xmlns:xsi="http://www.w3.org/2001/XMLSchema-instance" xsi:noNamespaceSchemaLocation="http://sumo.dlr.de/xsd/sumoConfiguration.xsd">

    <input>
        <net-file value="C:\Users\neill\Github\tokai-sim\sim\sumo\bergvliet.net.xml"/>
        <route-files value="C:\Users\neill\Github\tokai-sim\sim\sumo\demand-M.rou.xml"/>
        <additional-files value="C:\Users\neill\Github\tokai-sim\sim\sumo\speed-humps.add.xml"/>
    </input>

    <output>
        <fcd-output value="C:\Users\neill\Github\tokai-sim\sim\sumo\fcd-M.xml"/>
        <tripinfo-output value="C:\Users\neill\Github\tokai-sim\sim\sumo\tripinfo-M.xml"/>
    </output>

    <time>
        <begin value="23400"/>
        <end value="32400"/>
        <step-length value="1"/>
    </time>

    <routing>
        <routing-algorithm value="astar"/>
        <device.rerouting.probability value="1.0"/>
        <device.rerouting.period value="60"/>
        <device.rerouting.pre-period value="0"/>
    </routing>

    <report>
        <no-warnings value="false"/>
        <no-step-log value="true"/>
    </report>

    <fcd_device>
        <device.fcd.period value="30"/>
    </fcd_device>

</sumoConfiguration>
-->

<fcd-export xmlns:xsi="http://www.w3.org/2001/XMLSchema-instance" xsi:noNamespaceSchemaLocation="http://sumo.dlr.de/xsd/fcd_file.xsd">
    <timestep time="23400.00">
        <vehicle id="flow_0_in.0" x="1576.47" y="73.90" angle="278.01" type="car" speed="14.72" pos="5.10" lane="-690833056#0_0" slope="0.00"/>
        <vehicle id="flow_0_out.0" x="586.18" y="545.55" angle="198.52" type="car" speed="13.03" pos="5.10" lane="-27669895#0_0" slope="0.00"/>
        <vehicle id="flow_1_in.0" x="711.02" y="1346.80" angle="261.83" type="car" speed="5.45" pos="0.20" lane="-687674693#1_0" slope="0.00"/>
        <vehicle id="flow_2_in.0" x="1313.77" y="581.12" angle="217.61" type="car" speed="14.31" pos="0.20" lane="-687674681_0" slope="0.00"/>
        <vehicle id="flow_3_in.0" x="425.28" y="1642.98" angle="159.00" type="car" speed="4.12" pos="0.20" lane="27669864_0" slope="0.00"/>
    </timestep>
    <timestep time="23430.00">
        <vehicle id="flow_0_in.0" x="1212.61" y="80.60" angle="261.77" type="car" speed="13.91" pos="6.92" lane=":-403_0_0" slope="0.00"/>
        <vehicle id="flow_0_out.0" x="609.91" y="556.70" angle="115.75" type="car" speed="7.45" pos="9.32" lane="27669888#1_0" slope="0.00"/>
        <vehicle id="flow_1_in.0" x="440.77" y="1243.68" angle="255.96" type="car" speed="6.07" pos="12.28" lane=":303887664_1_0" slope="0.00"/>
        <vehicle id="flow_1_out.0" x="593.31" y="556.43" angle="21.11" type="car" speed="8.08" pos="1.93" lane="27669895#1_0" slope="0.00"/>
        <vehicle id="flow_2_in.0" x="1063.67" y="557.47" angle="225.07" type="car" speed="13.10" pos="156.80" lane="-702927361_0" slope="0.00"/>
        <vehicle id="flow_2_out.0" x="578.99" y="503.93" angle="9.34" type="car" speed="11.08" pos="85.19" lane="27669895#0_0" slope="0.00"/>
        <vehicle id="flow_3_in.0" x="526.91" y="1275.54" angle="184.02" type="car" speed="6.42" pos="5.89" lane=":303887562_12_0" slope="0.00"/>
        <vehicle id="flow_3_out.0" x="577.58" y="453.00" angle="356.84" type="car" speed="9.92" pos="34.07" lane="27669895#0_0" slope="0.00"/>
    </timestep>
    <timestep time="23460.00">
        <vehicle id="flow_0_in.0" x="887.31" y="262.27" angle="321.79" type="car" speed="13.84" pos="0.80" lane=":-83_0_0" slope="0.00"/>
        <vehicle id="flow_0_out.0" x="731.77" y="323.14" angle="145.12" type="car" speed="12.48" pos="48.26" lane="-27669907#0_0" slope="0.00"/>
        <vehicle id="flow_1_in.0" x="376.06" y="1049.04" angle="230.84" type="car" speed="5.71" pos="0.58" lane="-27669962#1_0" slope="0.00"/>
        <vehicle id="flow_1_out.0" x="768.73" y="540.96" angle="334.83" type="car" speed="10.62" pos="17.35" lane="-27669894#3_0" slope="0.00"/>
        <vehicle id="flow_2_in.0" x="849.87" y="392.79" angle="330.70" type="car" speed="8.11" pos="10.67" lane="-27669894#4_0" slope="0.00"/>
        <vehicle id="flow_2_out.0" x="765.55" y="509.52" angle="60.15" type="car" speed="9.16" pos="63.97" lane="27669907#2_0" slope="0.00"/>
        <vehicle id="flow_3_in.0" x="325.47" y="1205.13" angle="159.91" type="car" speed="12.58" pos="35.60" lane="27669946#0_0" slope="0.00"/>
        <vehicle id="flow_3_out.0" x="739.99" y="494.85" angle="60.15" type="car" speed="12.14" pos="34.50" lane="27669907#2_0" slope="0.00"/>
    </timestep>
    <timestep time="23490.00">
        <vehicle id="flow_0_in.0" x="663.87" y="450.68" angle="59.63" type="car" speed="13.86" pos="94.60" lane="27669907#1_0" slope="0.00"/>
        <vehicle id="flow_0_out.0" x="960.04" y="168.87" angle="133.75" type="car" speed="12.65" pos="6.51" lane=":-378_6_0" slope="0.00"/>
        <vehicle id="flow_1_in.0" x="309.19" y="823.62" angle="246.21" type="car" speed="15.56" pos="55.89" lane="-1031107370#0_0" slope="0.00"/>
        <vehicle id="flow_1_out.0" x="777.31" y="805.12" angle="322.00" type="car" speed="12.43" pos="21.66" lane="-687674678#8_0" slope="0.00"/>
        <vehicle id="flow_2_in.0" x="632.26" y="549.46" angle="295.41" type="car" speed="13.79" pos="98.39" lane="-27669888#1_0" slope="0.00"/>
        <vehicle id="flow_2_out.0" x="908.37" y="412.11" angle="53.22" type="car" speed="11.48" pos="54.74" lane="27669908#4_0" slope="0.00"/>
        <vehicle id="flow_3_in.0" x="408.16" y="895.28" angle="157.68" type="car" speed="14.15" pos="65.78" lane="27669889#1_0" slope="0.00"/>
        <vehicle id="flow_3_out.0" x="688.48" y="645.20" angle="318.78" type="car" speed="11.78" pos="149.85" lane="-27669894#3_0" slope="0.00"/>
    </timestep>
    <timestep time="23520.00">
        <vehicle id="flow_0_in.0" x="423.59" y="580.83" angle="264.54" type="car" speed="14.35" pos="170.11" lane="-27669888#0_0" slope="0.00"/>
        <vehicle id="flow_0_out.0" x="1283.64" y="87.75" angle="81.67" type="car" speed="12.77" pos="64.40" lane="690833054#1_0" slope="0.00"/>
        <vehicle id="flow_1_in.0" x="331.69" y="558.13" angle="139.92" type="car" speed="0.98" pos="7.69" lane="school_internal_in_0" slope="0.00"/>
        <vehicle id="flow_1_out.0" x="820.07" y="1059.05" angle="3.75" type="car" speed="7.15" pos="10.80" lane=":-172_10_0" slope="0.00"/>
        <vehicle id="flow_2_in.0" x="326.12" y="564.94" angle="160.99" type="car" speed="1.48" pos="6.35" lane=":-229_6_0" slope="0.00"/>
        <vehicle id="flow_2_in.1" x="1104.09" y="598.25" angle="224.57" type="car" speed="12.10" pos="99.38" lane="-702927361_0" slope="0.00"/>
        <vehicle id="flow_2_out.0" x="1077.23" y="488.93" angle="137.11" type="car" speed="10.98" pos="52.29" lane="687674678#16_0" slope="0.00"/>
        <vehicle id="flow_2_out.1" x="589.26" y="544.65" angle="17.63" type="car" speed="10.89" pos="127.24" lane="27669895#0_0" slope="0.00"/>
        <vehicle id="flow_3_in.0" x="318.03" y="606.18" angle="175.78" type="car" speed="13.54" pos="6.94" lane="821487355#1_0" slope="0.00"/>
        <vehicle id="flow_3_out.0" x="738.86" y="865.15" angle="334.30" type="car" speed="11.09" pos="93.15" lane="-687674678#8_0" slope="0.00"/>
    </timestep>
    <timestep time="23550.00">
        <vehicle id="flow_0_in.0" x="335.12" y="554.06" angle="139.92" type="car" speed="1.11" pos="13.02" lane="school_internal_in_0" slope="0.00"/>
        <vehicle id="flow_0_out.0" x="1506.19" y="81.14" angle="98.57" type="car" speed="3.80" pos="28.11" lane="856730052#2_0" slope="0.00"/>
        <vehicle id="flow_1_in.0" x="353.04" y="532.76" angle="139.92" type="car" speed="0.84" pos="40.86" lane="school_internal_in_0" slope="0.00"/>
        <vehicle id="flow_2_in.0" x="347.30" y="539.58" angle="139.92" type="car" speed="1.21" pos="31.93" lane="school_internal_in_0" slope="0.00"/>
        <vehicle id="flow_2_in.1" x="900.48" y="410.20" angle="233.22" type="car" speed="12.74" pos="42.93" lane="-27669908#4_0" slope="0.00"/>
        <vehicle id="flow_2_out.0" x="1268.54" y="529.98" angle="43.82" type="car" speed="11.16" pos="2.71" lane=":-16_7_0" slope="0.00"/>
        <vehicle id="flow_2_out.1" x="773.65" y="513.90" angle="62.80" type="car" speed="1.75" pos="1.63" lane=":-292_3_0" slope="0.00"/>
        <vehicle id="flow_3_in.0" x="340.66" y="547.48" angle="139.92" type="car" speed="0.86" pos="21.62" lane="school_internal_in_0" slope="0.00"/>
        <vehicle id="flow_3_out.0" x="818.74" y="1062.86" angle="341.26" type="car" speed="6.10" pos="1.25" lane="-687674692#1_0" slope="0.00"/>
    </timestep>
    <timestep time="23580.00">
        <vehicle id="flow_0_in.0" x="344.39" y="543.04" angle="139.92" type="car" speed="0.00" pos="27.41" lane="school_internal_in_0" slope="0.00"/>
        <vehicle id="flow_0_in.1" x="1489.80" y="87.10" angle="280.27" type="car" speed="14.08" pos="60.65" lane="-856730052#2_0" slope="0.00"/>
        <vehicle id="flow_0_out.1" x="575.19" y="438.03" angle="176.85" type="car" speed="14.01" pos="114.17" lane="-27669895#0_0" slope="0.00"/>
        <vehicle id="flow_1_in.0" x="358.90" y="525.80" angle="139.92" type="car" speed="0.00" pos="49.95" lane="school_internal_in_0" slope="0.00"/>
        <vehicle id="flow_1_in.1" x="634.12" y="1315.93" angle="248.98" type="car" speed="13.83" pos="4.88" lane="-27669866#4_0" slope="0.00"/>
        <vehicle id="flow_1_out.1" x="573.93" y="461.00" angle="177.10" type="car" speed="13.25" pos="91.16" lane="-27669895#0_0" slope="0.00"/>
        <vehicle id="flow_2_in.0" x="354.06" y="531.55" angle="139.92" type="car" speed="0.00" pos="42.43" lane="school_internal_in_0" slope="0.00"/>
        <vehicle id="flow_2_in.1" x="701.26" y="481.89" angle="299.52" type="car" speed="5.78" pos="8.27" lane=":-248_0_0" slope="0.00"/>
        <vehicle id="flow_2_out.0" x="1309.32" y="572.07" angle="49.33" type="car" speed="2.57" pos="1.57" lane=":-745_7_0" slope="0.00"/>
        <vehicle id="flow_2_out.1" x="946.46" y="441.35" angle="49.11" type="car" speed="7.68" pos="12.56" lane=":-141_9_0" slope="0.00"/>
        <vehicle id="flow_3_in.0" x="349.22" y="537.30" angle="139.92" type="car" speed="0.00" pos="34.91" lane="school_internal_in_0" slope="0.00"/>
        <vehicle id="flow_3_out.0" x="660.19" y="1439.53" angle="337.40" type="car" speed="13.56" pos="17.53" lane="-27669868#1_0" slope="0.00"/>
    </timestep>
    <timestep time="23610.00">
        <vehicle id="flow_0_in.0" x="344.39" y="543.04" angle="139.92" type="car" speed="0.00" pos="27.41" lane="school_internal_in_0" slope="0.00"/>
        <vehicle id="flow_0_in.1" x="1118.30" y="66.66" angle="261.31" type="car" speed="13.86" pos="34.36" lane="-856730048#0_0" slope="0.00"/>
        <vehicle id="flow_0_out.1" x="693.07" y="489.17" angle="149.20" type="car" speed="10.21" pos="119.49" lane="27669888#1_0" slope="0.00"/>
        <vehicle id="flow_1_in.0" x="363.44" y="520.41" angle="139.92" type="car" speed="1.08" pos="57.00" lane="school_internal_in_0" slope="0.00"/>
        <vehicle id="flow_1_in.1" x="333.34" y="1248.22" angle="274.69" type="car" speed="7.63" pos="92.29" lane="-27669866#1_0" slope="0.00"/>
        <vehicle id="flow_1_out.1" x="677.88" y="512.84" angle="142.14" type="car" speed="14.66" pos="91.35" lane="27669888#1_0" slope="0.00"/>
        <vehicle id="flow_2_in.0" x="357.64" y="527.29" angle="139.92" type="car" speed="1.33" pos="48.00" lane="school_internal_in_0" slope="0.00"/>
        <vehicle id="flow_2_in.1" x="413.27" y="579.85" angle="264.54" type="car" speed="12.66" pos="180.47" lane="-27669888#0_0" slope="0.00"/>
        <vehicle id="flow_2_in.2" x="1123.97" y="444.98" angle="315.47" type="car" speed="12.07" pos="31.31" lane="-687674678#17_0" slope="0.00"/>
        <vehicle id="flow_2_out.1" x="1129.89" y="434.40" angle="135.48" type="car" speed="11.11" pos="44.18" lane="687674678#17_0" slope="0.00"/>
        <vehicle id="flow_2_out.2" x="591.67" y="552.38" angle="16.87" type="car" speed="10.45" pos="3.20" lane=":303888297_1_0" slope="0.00"/>
        <vehicle id="flow_3_in.0" x="350.96" y="535.23" angle="139.92" type="car" speed="1.35" pos="37.62" lane="school_internal_in_0" slope="0.00"/>
        <vehicle id="flow_3_out.0" x="426.38" y="1645.22" angle="321.40" type="car" speed="2.32" pos="2.08" lane=":289421405_7_0" slope="0.00"/>
    </timestep>
    <timestep time="23640.00">
        <vehicle id="flow_0_in.0" x="365.42" y="518.05" angle="139.92" type="car" speed="1.20" pos="60.08" lane="school_internal_in_0" slope="0.00"/>
        <vehicle id="flow_0_in.1" x="827.54" y="339.27" angle="322.19" type="car" speed="5.63" pos="90.78" lane="-27669865#0_0" slope="0.00"/>
        <vehicle id="flow_0_out.1" x="829.22" y="331.90" angle="142.19" type="car" speed="8.35" pos="9.98" lane="27669865#0_0" slope="0.00"/>
        <vehicle id="flow_1_in.0" x="383.02" y="497.13" angle="139.92" type="car" speed="1.31" pos="87.42" lane="school_internal_in_0" slope="0.00"/>
        <vehicle id="flow_1_in.1" x="377.62" y="970.82" angle="157.56" type="car" speed="14.50" pos="64.01" lane="27669889#0_0" slope="0.00"/>
        <vehicle id="flow_1_out.1" x="693.09" y="639.94" angle="318.78" type="car" speed="15.08" pos="142.84" lane="-27669894#3_0" slope="0.00"/>
        <vehicle id="flow_2_in.0" x="376.99" y="504.29" angle="139.92" type="car" speed="1.38" pos="78.05" lane="school_internal_in_0" slope="0.00"/>
        <vehicle id="flow_2_in.1" x="338.31" y="550.27" angle="139.92" type="car" speed="0.94" pos="17.96" lane="school_internal_in_0" slope="0.00"/>
        <vehicle id="flow_2_in.2" x="849.09" y="729.31" angle="315.94" type="car" speed="13.08" pos="29.89" lane="-687674678#11_0" slope="0.00"/>
        <vehicle id="flow_2_out.1" x="1307.06" y="570.35" angle="44.59" type="car" speed="0.69" pos="2.33" lane=":6031965052_1_0" slope="0.00"/>
        <vehicle id="flow_2_out.2" x="783.84" y="503.93" angle="150.70" type="car" speed="6.49" pos="8.34" lane="27669894#4_0" slope="0.00"/>
        <vehicle id="flow_3_in.0" x="370.90" y="511.54" angle="139.92" type="car" speed="0.70" pos="68.59" lane="school_internal_in_0" slope="0.00"/>
    </timestep>
    <timestep time="23670.00">
        <vehicle id="flow_0_in.0" x="384.46" y="495.41" angle="139.92" type="car" speed="1.14" pos="89.66" lane="school_internal_in_0" slope="0.00"/>
        <vehicle id="flow_0_in.1" x="682.12" y="512.60" angle="327.02" type="car" speed="13.23" pos="35.38" lane="-27669888#1_0" slope="0.00"/>
        <vehicle id="flow_0_out.1" x="1105.15" y="61.41" angle="81.27" type="car" speed="13.10" pos="16.58" lane="690833053_0" slope="0.00"/>
        <vehicle id="flow_1_in.0" x="402.63" y="473.82" angle="139.92" type="car" speed="0.79" pos="117.88" lane="school_internal_in_0" slope="0.00"/>
        <vehicle id="flow_1_in.1" x="310.63" y="685.30" angle="174.49" type="car" speed="14.09" pos="60.07" lane="27669963_0" slope="0.00"/>
        <vehicle id="flow_1_out.1" x="709.59" y="933.44" angle="337.71" type="car" speed="15.17" pos="4.90" lane=":303887567_0_0" slope="0.00"/>
        <vehicle id="flow_2_in.0" x="397.09" y="480.40" angle="139.92" type="car" speed="0.80" pos="109.27" lane="school_internal_in_0" slope="0.00"/>
        <vehicle id="flow_2_in.1" x="358.14" y="526.70" angle="139.92" type="car" speed="0.76" pos="48.77" lane="school_internal_in_0" slope="0.00"/>
        <vehicle id="flow_2_in.2" x="628.35" y="682.05" angle="263.39" type="car" speed="12.62" pos="45.95" lane="-27669894#2_0" slope="0.00"/>
        <vehicle id="flow_2_out.1" x="1308.42" y="571.39" angle="47.39" type="car" speed="1.45" pos="0.45" lane=":-745_7_0" slope="0.00"/>
        <vehicle id="flow_2_out.2" x="993.29" y="486.65" angle="45.84" type="car" speed="12.39" pos="60.06" lane="27669908#5_0" slope="0.00"/>
        <vehicle id="flow_3_in.0" x="390.56" y="488.17" angle="139.92" type="car" speed="0.75" pos="99.13" lane="school_internal_in_0" slope="0.00"/>
    </timestep>
    <timestep time="23700.00">
        <vehicle id="flow_0_in.0" x="404.98" y="471.03" angle="139.92" type="car" speed="1.05" pos="121.52" lane="school_internal_in_0" slope="0.00"/>
        <vehicle id="flow_0_in.1" x="326.10" y="564.95" angle="161.27" type="car" speed="4.16" pos="6.33" lane=":-229_6_0" slope="0.00"/>
        <vehicle id="flow_0_out.1" x="1452.57" y="99.71" angle="128.99" type="car" speed="13.17" pos="2.97" lane="856730052#1_0" slope="0.00"/>
        <vehicle id="flow_1_in.0" x="423.71" y="448.77" angle="139.92" type="car" speed="1.17" pos="150.62" lane="school_internal_in_0" slope="0.00"/>
        <vehicle id="flow_1_in.1" x="338.81" y="549.67" angle="139.92" type="car" speed="0.78" pos="18.75" lane="school_internal_in_0" slope="0.00"/>
        <vehicle id="flow_1_out.1" x="759.54" y="1201.54" angle="337.22" type="car" speed="16.13" pos="152.04" lane="-687674692#1_0" slope="0.00"/>
        <vehicle id="flow_2_in.0" x="416.75" y="457.03" angle="139.92" type="car" speed="1.09" pos="139.81" lane="school_internal_in_0" slope="0.00"/>
        <vehicle id="flow_2_in.1" x="358.93" y="525.76" angle="139.92" type="car" speed="0.00" pos="50.00" lane="school_internal_in_0" slope="0.00"/>
        <vehicle id="flow_2_in.2" x="317.57" y="612.40" angle="175.16" type="car" speed="12.74" pos="0.70" lane="821487355#1_0" slope="0.00"/>
        <vehicle id="flow_2_in.3" x="1140.64" y="635.35" angle="224.57" type="car" speed="12.18" pos="47.30" lane="-702927361_0" slope="0.00"/>
        <vehicle id="flow_2_out.2" x="1153.32" y="418.15" angle="83.81" type="car" speed="5.83" pos="10.68" lane=":303887616_14_0" slope="0.00"/>
        <vehicle id="flow_2_out.3" x="590.17" y="547.46" angle="17.80" type="car" speed="12.82" pos="130.20" lane="27669895#0_0" slope="0.00"/>
        <vehicle id="flow_3_in.0" x="410.93" y="463.96" angle="139.92" type="car" speed="0.77" pos="130.76" lane="school_internal_in_0" slope="0.00"/>
    </timestep>
    <timestep time="23730.00">
        <vehicle id="flow_0_in.0" x="425.52" y="446.61" angle="139.92" type="car" speed="1.42" pos="153.44" lane="school_internal_in_0" slope="0.00"/>
        <vehicle id="flow_0_in.1" x="348.42" y="538.26" angle="139.92" type="car" speed="1.50" pos="33.67" lane="school_internal_in_0" slope="0.00"/>
        <vehicle id="flow_0_out.1" x="1585.41" y="72.64" angle="348.23" type="car" speed="3.58" pos="0.54" lane=":-833_0_0" slope="0.00"/>
        <vehicle id="flow_1_in.0" x="444.45" y="424.12" angle="139.92" type="car" speed="1.15" pos="182.83" lane="school_internal_in_0" slope="0.00"/>
        <vehicle id="flow_1_in.1" x="358.82" y="525.89" angle="139.92" type="car" speed="0.18" pos="49.82" lane="school_internal_in_0" slope="0.00"/>
        <vehicle id="flow_2_in.0" x="437.73" y="432.11" angle="139.92" type="car" speed="0.72" pos="172.39" lane="school_internal_in_0" slope="0.00"/>
        <vehicle id="flow_2_in.1" x="367.08" y="516.07" angle="139.92" type="car" speed="0.70" pos="62.66" lane="school_internal_in_0" slope="0.00"/>
        <vehicle id="flow_2_in.2" x="340.36" y="547.83" angle="139.92" type="car" speed="0.76" pos="21.15" lane="school_internal_in_0" slope="0.00"/>
        <vehicle id="flow_2_in.3" x="949.68" y="448.76" angle="225.84" type="car" speed="5.94" pos="113.77" lane="-27669908#5_0" slope="0.00"/>
        <vehicle id="flow_2_out.2" x="1307.26" y="570.52" angle="44.93" type="car" speed="0.00" pos="2.59" lane=":6031965052_1_0" slope="0.00"/>
        <vehicle id="flow_2_out.3" x="781.90" y="507.39" angle="149.69" type="car" speed="4.97" pos="4.37" lane="27669894#4_0" slope="0.00"/>
        <vehicle id="flow_3_in.0" x="432.21" y="438.66" angle="139.92" type="car" speed="1.22" pos="163.82" lane="school_internal_in_0" slope="0.00"/>
    </timestep>
    <timestep time="23760.00">
        <vehicle id="flow_0_in.0" x="446.55" y="421.61" angle="139.92" type="car" speed="1.31" pos="186.10" lane="school_internal_in_0" slope="0.00"/>
        <vehicle id="flow_0_in.1" x="354.09" y="531.52" angle="139.92" type="car" speed="0.00" pos="42.47" lane="school_internal_in_0" slope="0.00"/>
        <vehicle id="flow_0_in.2" x="1402.98" y="125.57" angle="253.25" type="car" speed="10.20" pos="11.10" lane="-690833054#2_0" slope="0.00"/>
        <vehicle id="flow_0_out.2" x="576.50" y="481.96" angle="359.77" type="car" speed="15.14" pos="63.06" lane="27669895#0_0" slope="0.00"/>
        <vehicle id="flow_1_in.0" x="465.47" y="399.13" angle="139.92" type="car" speed="0.76" pos="215.48" lane="school_internal_in_0" slope="0.00"/>
        <vehicle id="flow_1_in.1" x="358.93" y="525.76" angle="139.92" type="car" speed="0.00" pos="50.00" lane="school_internal_in_0" slope="0.00"/>
        <vehicle id="flow_1_in.2" x="533.80" y="1277.43" angle="249.18" type="car" speed="8.70" pos="4.27" lane=":303887562_1_0" slope="0.00"/>
        <vehicle id="flow_1_out.2" x="578.90" y="431.31" angle="355.41" type="car" speed="6.80" pos="12.34" lane="27669895#0_0" slope="0.00"/>
        <vehicle id="flow_2_in.0" x="458.22" y="407.74" angle="139.92" type="car" speed="0.76" pos="204.23" lane="school_internal_in_0" slope="0.00"/>
        <vehicle id="flow_2_in.1" x="385.63" y="494.02" angle="139.92" type="car" speed="0.91" pos="91.47" lane="school_internal_in_0" slope="0.00"/>
        <vehicle id="flow_2_in.2" x="349.25" y="537.27" angle="139.92" type="car" speed="0.00" pos="34.96" lane="school_internal_in_0" slope="0.00"/>
        <vehicle id="flow_2_in.3" x="761.81" y="511.07" angle="240.15" type="car" speed="8.50" pos="10.07" lane="-27669907#2_0" slope="0.00"/>
        <vehicle id="flow_2_out.2" x="1308.92" y="571.77" angle="48.46" type="car" speed="2.08" pos="1.08" lane=":-745_7_0" slope="0.00"/>
        <vehicle id="flow_2_out.3" x="985.19" y="478.78" angle="45.84" type="car" speed="11.85" pos="48.77" lane="27669908#5_0" slope="0.00"/>
        <vehicle id="flow_3_in.0" x="452.82" y="414.17" angle="139.92" type="car" speed="1.34" pos="195.83" lane="school_internal_in_0" slope="0.00"/>
    </timestep>
    <timestep time="23790.00">
        <vehicle id="flow_0_in.0" x="467.40" y="396.83" angle="139.92" type="car" speed="0.84" pos="218.49" lane="school_internal_in_0" slope="0.00"/>
        <vehicle id="flow_0_in.1" x="358.59" y="526.16" angle="139.92" type="car" speed="0.87" pos="49.47" lane="school_internal_in_0" slope="0.00"/>
        <vehicle id="flow_0_in.2" x="1056.03" y="86.98" angle="311.46" type="car" speed="12.64" pos="30.92" lane="-690833052#1_0" slope="0.00"/>
        <vehicle id="flow_0_out.2" x="696.05" y="373.71" angle="142.02" type="car" speed="15.00" pos="0.30" lane=":-356_6_0" slope="0.00"/>
        <vehicle id="flow_1_in.0" x="486.64" y="376.57" angle="115.88" type="car" speed="1.28" pos="247.63" lane="school_internal_in_0" slope="0.00"/>
        <vehicle id="flow_1_in.1" x="369.29" y="513.45" angle="139.92" type="car" speed="0.89" pos="66.08" lane="school_internal_in_0" slope="0.00"/>
        <vehicle id="flow_1_in.2" x="336.11" y="1176.05" angle="159.91" type="car" speed="13.82" pos="17.52" lane="27669946#1_0" slope="0.00"/>
        <vehicle id="flow_1_out.2" x="742.79" y="496.46" angle="60.15" type="car" speed="12.84" pos="37.73" lane="27669907#2_0" slope="0.00"/>
        <vehicle id="flow_2_in.0" x="478.91" y="383.15" angle="139.92" type="car" speed="0.93" pos="236.36" lane="school_internal_in_0" slope="0.00"/>
        <vehicle id="flow_2_in.1" x="405.51" y="470.40" angle="139.92" type="car" speed="0.97" pos="122.35" lane="school_internal_in_0" slope="0.00"/>
        <vehicle id="flow_2_in.2" x="349.92" y="536.47" angle="139.92" type="car" speed="1.04" pos="36.00" lane="school_internal_in_0" slope="0.00"/>
        <vehicle id="flow_2_in.3" x="512.34" y="589.03" angle="264.98" type="car" speed="12.15" pos="80.98" lane="-27669888#0_0" slope="0.00"/>
        <vehicle id="flow_2_in.4" x="1146.00" y="422.61" angle="292.73" type="car" speed="5.15" pos="9.14" lane=":303887616_0_0" slope="0.00"/>
        <vehicle id="flow_2_out.3" x="1143.56" y="420.50" angle="135.48" type="car" speed="0.07" pos="63.67" lane="687674678#17_0" slope="0.00"/>
        <vehicle id="flow_2_out.4" x="583.36" y="524.77" angle="14.44" type="car" speed="12.21" pos="106.50" lane="27669895#0_0" slope="0.00"/>
        <vehicle id="flow_3_in.0" x="473.29" y="389.83" angle="139.92" type="car" speed="0.86" pos="227.64" lane="school_internal_in_0" slope="0.00"/>
    </timestep>
    <timestep time="23820.00">
        <vehicle id="flow_0_in.0" x="489.03" y="377.62" angle="74.10" type="car" speed="0.85" pos="250.24" lane="school_internal_in_0" slope="0.00"/>
        <vehicle id="flow_0_in.1" x="380.03" y="500.68" angle="139.92" type="car" speed="0.95" pos="82.77" lane="school_internal_in_0" slope="0.00"/>
        <vehicle id="flow_0_in.2" x="815.45" y="344.61" angle="259.84" type="car" speed="7.44" pos="11.67" lane=":-82_4_0" slope="0.00"/>
        <vehicle id="flow_0_out.2" x="971.35" y="158.33" angle="132.02" type="car" speed="15.59" pos="7.05" lane="690833052#1_0" slope="0.00"/>
        <vehicle id="flow_1_in.0" x="516.64" y="389.71" angle="66.34" type="car" speed="1.09" pos="280.38" lane="school_internal_in_0" slope="0.00"/>
        <vehicle id="flow_1_in.1" x="390.16" y="488.65" angle="139.92" type="car" speed="0.83" pos="98.50" lane="school_internal_in_0" slope="0.00"/>
        <vehicle id="flow_1_in.2" x="413.27" y="866.22" angle="172.64" type="car" speed="13.55" pos="95.38" lane="27669889#1_0" slope="0.00"/>
        <vehicle id="flow_1_out.2" x="708.45" y="694.22" angle="45.25" type="car" speed="12.00" pos="41.69" lane="27669873#0_0" slope="0.00"/>
        <vehicle id="flow_2_in.0" x="506.02" y="385.06" angle="66.34" type="car" speed="0.79" pos="268.79" lane="school_internal_in_0" slope="0.00"/>
        <vehicle id="flow_2_in.1" x="424.77" y="447.51" angle="139.92" type="car" speed="1.27" pos="152.26" lane="school_internal_in_0" slope="0.00"/>
        <vehicle id="flow_2_in.2" x="370.87" y="511.56" angle="139.92" type="car" speed="1.30" pos="68.55" lane="school_internal_in_0" slope="0.00"/>
        <vehicle id="flow_2_in.3" x="332.05" y="557.71" angle="139.92" type="car" speed="0.85" pos="8.25" lane="school_internal_in_0" slope="0.00"/>
        <vehicle id="flow_2_in.4" x="887.19" y="689.79" angle="316.28" type="car" speed="12.79" pos="53.79" lane="-687674678#12_0" slope="0.00"/>
        <vehicle id="flow_2_out.3" x="1307.26" y="570.52" angle="44.93" type="car" speed="0.00" pos="2.59" lane=":6031965052_1_0" slope="0.00"/>
        <vehicle id="flow_2_out.4" x="772.05" y="513.25" angle="60.15" type="car" speed="0.08" pos="71.46" lane="27669907#2_0" slope="0.00"/>
        <vehicle id="flow_3_in.0" x="497.31" y="381.25" angle="66.34" type="car" speed="0.80" pos="259.28" lane="school_internal_in_0" slope="0.00"/>
    </timestep>
    <timestep time="23850.00">
        <vehicle id="flow_0_in.0" x="519.01" y="390.75" angle="66.34" type="car" speed="0.96" pos="282.97" lane="school_internal_in_0" slope="0.00"/>
        <vehicle id="flow_0_in.1" x="401.92" y="474.66" angle="139.92" type="car" speed="1.43" pos="116.78" lane="school_internal_in_0" slope="0.00"/>
        <vehicle id="flow_0_in.2" x="697.44" y="488.07" angle="329.20" type="car" speed="6.49" pos="6.45" lane="-27669888#1_0" slope="0.00"/>
        <vehicle id="flow_0_out.2" x="1383.88" y="116.48" angle="73.25" type="car" speed="15.49" pos="34.98" lane="690833054#2_0" slope="0.00"/>
        <vehicle id="flow_1_in.0" x="547.15" y="403.08" angle="66.34" type="car" speed="0.98" pos="313.69" lane="school_internal_in_0" slope="0.00"/>
        <vehicle id="flow_1_in.1" x="412.19" y="462.46" angle="139.92" type="car" speed="0.77" pos="132.72" lane="school_internal_in_0" slope="0.00"/>
        <vehicle id="flow_1_in.2" x="319.61" y="584.77" angle="175.78" type="car" speed="13.15" pos="28.41" lane="821487355#1_0" slope="0.00"/>
        <vehicle id="flow_1_out.2" x="723.05" y="900.57" angle="337.74" type="car" speed="13.68" pos="131.95" lane="-687674678#8_0" slope="0.00"/>
        <vehicle id="flow_2_in.0" x="536.11" y="398.24" angle="66.34" type="car" speed="1.19" pos="301.64" lane="school_internal_in_0" slope="0.00"/>
        <vehicle id="flow_2_in.1" x="442.89" y="425.97" angle="139.92" type="car" speed="1.17" pos="180.41" lane="school_internal_in_0" slope="0.00"/>
        <vehicle id="flow_2_in.2" x="391.12" y="487.50" angle="139.92" type="car" speed="0.86" pos="100.00" lane="school_internal_in_0" slope="0.00"/>
        <vehicle id="flow_2_in.3" x="348.98" y="537.59" angle="139.92" type="car" speed="0.94" pos="34.54" lane="school_internal_in_0" slope="0.00"/>
        <vehicle id="flow_2_in.4" x="673.23" y="665.33" angle="237.97" type="car" speed="6.11" pos="3.89" lane=":-167_0_0" slope="0.00"/>
        <vehicle id="flow_2_out.3" x="1308.67" y="571.58" angle="47.92" type="car" speed="1.76" pos="0.76" lane=":-745_7_0" slope="0.00"/>
        <vehicle id="flow_2_out.4" x="939.55" y="435.51" angle="52.39" type="car" speed="4.81" pos="3.51" lane=":-141_9_0" slope="0.00"/>
        <vehicle id="flow_3_in.0" x="527.34" y="394.40" angle="66.34" type="car" speed="1.17" pos="292.06" lane="school_internal_in_0" slope="0.00"/>
    </timestep>
    <timestep time="23880.00">
        <vehicle id="flow_0_in.0" x="544.74" y="402.02" angle="66.34" type="car" speed="1.30" pos="311.06" lane="school_internal_in_0" slope="0.00"/>
        <vehicle id="flow_0_in.1" x="424.69" y="447.60" angle="139.92" type="car" speed="1.04" pos="152.14" lane="school_internal_in_0" slope="0.00"/>
        <vehicle id="flow_0_in.2" x="384.14" y="576.89" angle="264.19" type="car" speed="12.75" pos="209.75" lane="-27669888#0_0" slope="0.00"/>
        <vehicle id="flow_0_out.2" x="1558.33" y="73.31" angle="98.41" type="car" speed="6.28" pos="9.18" lane=":cluster_-793_-794_13_0" slope="0.00"/>
        <vehicle id="flow_1_in.1" x="432.71" y="438.06" angle="139.92" type="car" speed="0.75" pos="164.60" lane="school_internal_in_0" slope="0.00"/>