<?xml version="1.0" encoding="UTF-8"?>

<!-- generated on 2026-04-22T11:15:34.735775+02:00 by Eclipse SUMO sumo 1.26.0
<sumoConfiguration xmlns:xsi="http://www.w3.org/2001/XMLSchema-instance" xsi:noNamespaceSchemaLocation="http://sumo.dlr.de/xsd/sumoConfiguration.xsd">

    <input>
        <net-file value="C:\Users\neill\Github\tokai-sim\sim\sumo\bergvliet.net.xml"/>
        <route-files value="C:\Users\neill\Github\tokai-sim\sim\sumo\demand-L.rou.xml"/>
        <additional-files value="C:\Users\neill\Github\tokai-sim\sim\sumo\speed-humps.add.xml"/>
    </input>

    <output>
        <fcd-output value="C:\Users\neill\Github\tokai-sim\sim\sumo\fcd-L.xml"/>
        <tripinfo-output value="C:\Users\neill\Github\tokai-sim\sim\sumo\tripinfo-L.xml"/>
    </output>

    <time>
        <begin value="23400"/>
        <end value="32400"/>
        <step-length value="1"/>
    </time>

    <routing>
        <routing-algorithm value="astar"/>
        <device.rerouting.probability value="1.0"/>
        <device.rerouting.period value="60"/>
        <device.rerouting.pre-period value="0"/>
    </routing>

    <report>
        <no-warnings value="false"/>
        <no-step-log value="true"/>
    </report>

    <fcd_device>
        <device.fcd.period value="30"/>
    </fcd_device>

</sumoConfiguration>
-->

<fcd-export xmlns:xsi="http://www.w3.org/2001/XMLSchema-instance" xsi:noNamespaceSchemaLocation="http://sumo.dlr.de/xsd/fcd_file.xsd">
    <timestep time="23400.00">
        <vehicle id="flow_0_in.0" x="1576.47" y="73.90" angle="278.01" type="car" speed="14.72" pos="5.10" lane="-690833056#0_0" slope="0.00"/>
        <vehicle id="flow_0_out.0" x="586.18" y="545.55" angle="198.52" type="car" speed="13.03" pos="5.10" lane="-27669895#0_0" slope="0.00"/>
        <vehicle id="flow_1_in.0" x="711.02" y="1346.80" angle="261.83" type="car" speed="5.45" pos="0.20" lane="-687674693#1_0" slope="0.00"/>
        <vehicle id="flow_2_in.0" x="1313.77" y="581.12" angle="217.61" type="car" speed="14.31" pos="0.20" lane="-687674681_0" slope="0.00"/>
        <vehicle id="flow_3_in.0" x="425.28" y="1642.98" angle="159.00" type="car" speed="4.12" pos="0.20" lane="27669864_0" slope="0.00"/>
    </timestep>
    <timestep time="23430.00">
        <vehicle id="flow_0_in.0" x="1212.61" y="80.60" angle="261.77" type="car" speed="13.91" pos="6.92" lane=":-403_0_0" slope="0.00"/>
        <vehicle id="flow_0_out.0" x="609.91" y="556.70" angle="115.75" type="car" speed="7.45" pos="9.32" lane="27669888#1_0" slope="0.00"/>
        <vehicle id="flow_1_in.0" x="440.77" y="1243.68" angle="255.96" type="car" speed="6.07" pos="12.28" lane=":303887664_1_0" slope="0.00"/>
        <vehicle id="flow_1_out.0" x="593.31" y="556.43" angle="21.11" type="car" speed="8.08" pos="1.93" lane="27669895#1_0" slope="0.00"/>
        <vehicle id="flow_2_in.0" x="1063.67" y="557.47" angle="225.07" type="car" speed="13.10" pos="156.80" lane="-702927361_0" slope="0.00"/>
        <vehicle id="flow_2_out.0" x="578.99" y="503.93" angle="9.34" type="car" speed="11.08" pos="85.19" lane="27669895#0_0" slope="0.00"/>
        <vehicle id="flow_3_in.0" x="526.91" y="1275.54" angle="184.02" type="car" speed="6.42" pos="5.89" lane=":303887562_12_0" slope="0.00"/>
        <vehicle id="flow_3_out.0" x="577.58" y="453.00" angle="356.84" type="car" speed="9.92" pos="34.07" lane="27669895#0_0" slope="0.00"/>
    </timestep>
    <timestep time="23460.00">
        <vehicle id="flow_0_in.0" x="887.31" y="262.27" angle="321.79" type="car" speed="13.84" pos="0.80" lane=":-83_0_0" slope="0.00"/>
        <vehicle id="flow_0_out.0" x="731.77" y="323.14" angle="145.12" type="car" speed="12.48" pos="48.26" lane="-27669907#0_0" slope="0.00"/>
        <vehicle id="flow_1_in.0" x="376.06" y="1049.04" angle="230.84" type="car" speed="5.71" pos="0.58" lane="-27669962#1_0" slope="0.00"/>
        <vehicle id="flow_1_out.0" x="768.73" y="540.96" angle="334.83" type="car" speed="10.62" pos="17.35" lane="-27669894#3_0" slope="0.00"/>
        <vehicle id="flow_2_in.0" x="849.87" y="392.79" angle="330.70" type="car" speed="8.11" pos="10.67" lane="-27669894#4_0" slope="0.00"/>
        <vehicle id="flow_2_out.0" x="765.55" y="509.52" angle="60.15" type="car" speed="9.16" pos="63.97" lane="27669907#2_0" slope="0.00"/>
        <vehicle id="flow_3_in.0" x="325.47" y="1205.13" angle="159.91" type="car" speed="12.58" pos="35.60" lane="27669946#0_0" slope="0.00"/>
        <vehicle id="flow_3_out.0" x="739.99" y="494.85" angle="60.15" type="car" speed="12.14" pos="34.50" lane="27669907#2_0" slope="0.00"/>
    </timestep>
    <timestep time="23490.00">
        <vehicle id="flow_0_in.0" x="663.87" y="450.68" angle="59.63" type="car" speed="13.86" pos="94.60" lane="27669907#1_0" slope="0.00"/>
        <vehicle id="flow_0_out.0" x="960.04" y="168.87" angle="133.75" type="car" speed="12.65" pos="6.51" lane=":-378_6_0" slope="0.00"/>
        <vehicle id="flow_1_in.0" x="309.19" y="823.62" angle="246.21" type="car" speed="15.56" pos="55.89" lane="-1031107370#0_0" slope="0.00"/>
        <vehicle id="flow_1_out.0" x="777.31" y="805.12" angle="322.00" type="car" speed="12.43" pos="21.66" lane="-687674678#8_0" slope="0.00"/>
        <vehicle id="flow_2_in.0" x="632.26" y="549.46" angle="295.41" type="car" speed="13.79" pos="98.39" lane="-27669888#1_0" slope="0.00"/>
        <vehicle id="flow_2_out.0" x="908.37" y="412.11" angle="53.22" type="car" speed="11.48" pos="54.74" lane="27669908#4_0" slope="0.00"/>
        <vehicle id="flow_3_in.0" x="408.16" y="895.28" angle="157.68" type="car" speed="14.15" pos="65.78" lane="27669889#1_0" slope="0.00"/>
        <vehicle id="flow_3_out.0" x="688.48" y="645.20" angle="318.78" type="car" speed="11.78" pos="149.85" lane="-27669894#3_0" slope="0.00"/>
    </timestep>
    <timestep time="23520.00">
        <vehicle id="flow_0_in.0" x="422.65" y="580.74" angle="264.54" type="car" speed="14.35" pos="171.05" lane="-27669888#0_0" slope="0.00"/>
        <vehicle id="flow_0_out.0" x="1284.00" y="87.81" angle="81.67" type="car" speed="12.77" pos="64.77" lane="690833054#1_0" slope="0.00"/>
        <vehicle id="flow_1_in.0" x="331.53" y="558.33" angle="139.92" type="car" speed="0.98" pos="7.44" lane="school_internal_in_0" slope="0.00"/>
        <vehicle id="flow_1_out.0" x="819.94" y="1059.47" angle="359.36" type="car" speed="7.15" pos="11.24" lane=":-172_10_0" slope="0.00"/>
        <vehicle id="flow_2_in.0" x="325.97" y="565.15" angle="164.45" type="car" speed="1.48" pos="6.10" lane=":-229_6_0" slope="0.00"/>
        <vehicle id="flow_2_in.1" x="1279.05" y="579.52" angle="314.48" type="car" speed="9.57" pos="17.60" lane="-27669905#2_0" slope="0.00"/>
        <vehicle id="flow_2_out.0" x="1077.23" y="488.93" angle="137.11" type="car" speed="10.98" pos="52.29" lane="687674678#16_0" slope="0.00"/>
        <vehicle id="flow_2_out.1" x="573.23" y="479.72" angle="181.98" type="car" speed="10.94" pos="72.43" lane="-27669895#0_0" slope="0.00"/>
        <vehicle id="flow_3_in.0" x="318.12" y="604.94" angle="175.78" type="car" speed="13.54" pos="8.18" lane="821487355#1_0" slope="0.00"/>
        <vehicle id="flow_3_out.0" x="739.35" y="864.12" angle="334.30" type="car" speed="11.09" pos="92.01" lane="-687674678#8_0" slope="0.00"/>
    </timestep>
    <timestep time="23550.00">
        <vehicle id="flow_0_in.0" x="334.76" y="554.49" angle="139.92" type="car" speed="0.78" pos="12.46" lane="school_internal_in_0" slope="0.00"/>
        <vehicle id="flow_0_out.0" x="1506.19" y="81.14" angle="98.57" type="car" speed="3.80" pos="28.11" lane="856730052#2_0" slope="0.00"/>
        <vehicle id="flow_1_in.0" x="353.10" y="532.69" angle="139.92" type="car" speed="1.18" pos="40.94" lane="school_internal_in_0" slope="0.00"/>
        <vehicle id="flow_2_in.0" x="346.91" y="540.05" angle="139.92" type="car" speed="0.86" pos="31.33" lane="school_internal_in_0" slope="0.00"/>
        <vehicle id="flow_2_in.1" x="1045.59" y="540.59" angle="228.21" type="car" speed="2.56" pos="181.54" lane="-702927361_0" slope="0.00"/>
        <vehicle id="flow_2_out.0" x="1268.64" y="530.08" angle="43.81" type="car" speed="11.16" pos="2.85" lane=":-16_7_0" slope="0.00"/>
        <vehicle id="flow_2_out.1" x="636.56" y="543.89" angle="115.28" type="car" speed="10.69" pos="38.90" lane="27669888#1_0" slope="0.00"/>
        <vehicle id="flow_3_in.0" x="340.73" y="547.39" angle="139.92" type="car" speed="1.23" pos="21.73" lane="school_internal_in_0" slope="0.00"/>
        <vehicle id="flow_3_out.0" x="819.81" y="1059.91" angle="355.77" type="car" speed="6.41" pos="11.69" lane=":-172_10_0" slope="0.00"/>
    </timestep>
    <timestep time="23580.00">
        <vehicle id="flow_0_in.0" x="344.42" y="543.00" angle="139.92" type="car" speed="0.00" pos="27.46" lane="school_internal_in_0" slope="0.00"/>
        <vehicle id="flow_1_in.0" x="358.92" y="525.77" angle="139.92" type="car" speed="0.00" pos="49.99" lane="school_internal_in_0" slope="0.00"/>
        <vehicle id="flow_2_in.0" x="354.09" y="531.51" angle="139.92" type="car" speed="0.00" pos="42.48" lane="school_internal_in_0" slope="0.00"/>
        <vehicle id="flow_2_in.1" x="846.96" y="397.97" angle="330.70" type="car" speed="8.40" pos="16.61" lane="-27669894#4_0" slope="0.00"/>
        <vehicle id="flow_2_out.0" x="1308.64" y="571.56" angle="47.87" type="car" speed="1.73" pos="0.73" lane=":-745_7_0" slope="0.00"/>
        <vehicle id="flow_2_out.1" x="805.46" y="465.40" angle="150.70" type="car" speed="11.86" pos="52.51" lane="27669894#4_0" slope="0.00"/>
        <vehicle id="flow_3_in.0" x="349.25" y="537.26" angle="139.92" type="car" speed="0.00" pos="34.97" lane="school_internal_in_0" slope="0.00"/>
        <vehicle id="flow_3_out.0" x="664.90" y="1428.21" angle="337.40" type="car" speed="14.76" pos="5.26" lane="-27669868#1_0" slope="0.00"/>
    </timestep>
    <timestep time="23610.00">
        <vehicle id="flow_0_in.0" x="344.42" y="543.00" angle="139.92" type="car" speed="0.00" pos="27.46" lane="school_internal_in_0" slope="0.00"/>
        <vehicle id="flow_1_in.0" x="362.57" y="521.43" angle="139.92" type="car" speed="1.08" pos="55.66" lane="school_internal_in_0" slope="0.00"/>
        <vehicle id="flow_2_in.0" x="356.31" y="528.87" angle="139.92" type="car" speed="1.33" pos="45.93" lane="school_internal_in_0" slope="0.00"/>
        <vehicle id="flow_2_in.1" x="635.41" y="547.96" angle="295.20" type="car" speed="12.46" pos="94.90" lane="-27669888#1_0" slope="0.00"/>
        <vehicle id="flow_2_out.1" x="1001.34" y="494.47" angle="45.84" type="car" speed="11.14" pos="71.29" lane="27669908#5_0" slope="0.00"/>
        <vehicle id="flow_3_in.0" x="350.58" y="535.69" angle="139.92" type="car" speed="1.05" pos="37.02" lane="school_internal_in_0" slope="0.00"/>
        <vehicle id="flow_3_out.0" x="429.05" y="1642.14" angle="330.80" type="car" speed="5.32" pos="1.38" lane=":-81_0_0" slope="0.00"/>
    </timestep>
    <timestep time="23640.00">
        <vehicle id="flow_0_in.0" x="364.46" y="519.19" angle="139.92" type="car" speed="0.96" pos="58.58" lane="school_internal_in_0" slope="0.00"/>
        <vehicle id="flow_0_in.1" x="1273.80" y="89.55" angle="261.66" type="car" speed="15.10" pos="68.94" lane="-690833054#1_0" slope="0.00"/>
        <vehicle id="flow_0_out.1" x="591.36" y="551.10" angle="18.17" type="car" speed="10.90" pos="1.88" lane=":303888297_1_0" slope="0.00"/>
        <vehicle id="flow_1_in.0" x="382.65" y="497.57" angle="139.92" type="car" speed="0.86" pos="86.84" lane="school_internal_in_0" slope="0.00"/>
        <vehicle id="flow_1_in.1" x="453.22" y="1247.17" angle="249.45" type="car" speed="2.36" pos="75.92" lane="-27669866#2_0" slope="0.00"/>
        <vehicle id="flow_1_out.1" x="583.03" y="523.47" angle="14.44" type="car" speed="15.33" pos="105.16" lane="27669895#0_0" slope="0.00"/>
        <vehicle id="flow_2_in.0" x="376.28" y="505.13" angle="139.92" type="car" speed="0.79" pos="76.95" lane="school_internal_in_0" slope="0.00"/>
        <vehicle id="flow_2_in.1" x="324.77" y="569.64" angle="249.74" type="car" speed="4.17" pos="1.03" lane=":-229_6_0" slope="0.00"/>
        <vehicle id="flow_2_in.2" x="1313.77" y="581.12" angle="217.61" type="car" speed="0.00" pos="0.20" lane="-687674681_0" slope="0.00"/>
        <vehicle id="flow_2_out.1" x="1154.27" y="418.76" angle="73.08" type="car" speed="5.79" pos="11.82" lane=":303887616_14_0" slope="0.00"/>
        <vehicle id="flow_2_out.2" x="576.76" y="418.68" angle="174.75" type="car" speed="3.31" pos="0.10" lane=":-294_1_0" slope="0.00"/>
        <vehicle id="flow_3_in.0" x="370.38" y="512.15" angle="139.92" type="car" speed="0.96" pos="67.79" lane="school_internal_in_0" slope="0.00"/>
    </timestep>
    <timestep time="23670.00">
        <vehicle id="flow_0_in.0" x="383.92" y="496.05" angle="139.92" type="car" speed="0.90" pos="88.82" lane="school_internal_in_0" slope="0.00"/>
        <vehicle id="flow_0_in.1" x="917.98" y="223.37" angle="321.74" type="car" speed="14.81" pos="11.19" lane="-27669865#1_0" slope="0.00"/>
        <vehicle id="flow_0_out.1" x="719.56" y="340.66" angle="145.12" type="car" speed="14.18" pos="26.90" lane="-27669907#0_0" slope="0.00"/>
        <vehicle id="flow_1_in.0" x="401.83" y="474.77" angle="139.92" type="car" speed="1.15" pos="116.64" lane="school_internal_in_0" slope="0.00"/>
        <vehicle id="flow_1_in.1" x="372.99" y="1075.19" angle="159.91" type="car" speed="13.61" pos="124.92" lane="27669946#1_0" slope="0.00"/>
        <vehicle id="flow_1_out.1" x="773.68" y="514.49" angle="57.10" type="car" speed="2.05" pos="1.94" lane=":-292_4_0" slope="0.00"/>
        <vehicle id="flow_2_in.0" x="395.96" y="481.74" angle="139.92" type="car" speed="0.85" pos="107.52" lane="school_internal_in_0" slope="0.00"/>
        <vehicle id="flow_2_in.1" x="344.39" y="543.04" angle="139.92" type="car" speed="0.75" pos="27.41" lane="school_internal_in_0" slope="0.00"/>
        <vehicle id="flow_2_in.2" x="1312.38" y="579.29" angle="217.29" type="car" speed="2.30" pos="2.30" lane=":-745_1_0" slope="0.00"/>
        <vehicle id="flow_2_out.1" x="1309.30" y="572.06" angle="49.29" type="car" speed="2.55" pos="1.55" lane=":-745_7_0" slope="0.00"/>
        <vehicle id="flow_2_out.2" x="697.28" y="482.10" angle="149.20" type="car" speed="5.56" pos="127.72" lane="27669888#1_0" slope="0.00"/>
        <vehicle id="flow_3_in.0" x="389.55" y="489.36" angle="139.92" type="car" speed="0.73" pos="97.57" lane="school_internal_in_0" slope="0.00"/>
    </timestep>
    <timestep time="23700.00">
        <vehicle id="flow_0_in.0" x="404.16" y="472.00" angle="139.92" type="car" speed="1.25" pos="120.26" lane="school_internal_in_0" slope="0.00"/>
        <vehicle id="flow_0_in.1" x="661.46" y="423.06" angle="321.92" type="car" speed="14.76" pos="59.88" lane="27669907#1_0" slope="0.00"/>
        <vehicle id="flow_0_out.1" x="971.87" y="157.87" angle="132.02" type="car" speed="13.17" pos="7.73" lane="690833052#1_0" slope="0.00"/>
        <vehicle id="flow_1_in.0" x="421.96" y="450.84" angle="139.92" type="car" speed="0.88" pos="147.90" lane="school_internal_in_0" slope="0.00"/>
        <vehicle id="flow_1_in.1" x="357.37" y="840.24" angle="263.75" type="car" speed="15.18" pos="4.58" lane="-1031107370#0_0" slope="0.00"/>
        <vehicle id="flow_1_out.1" x="798.32" y="775.73" angle="33.35" type="car" speed="6.69" pos="5.53" lane=":-168_4_0" slope="0.00"/>
        <vehicle id="flow_2_in.0" x="416.07" y="457.85" angle="139.92" type="car" speed="0.95" pos="138.75" lane="school_internal_in_0" slope="0.00"/>
        <vehicle id="flow_2_in.1" x="358.92" y="525.78" angle="139.92" type="car" speed="0.00" pos="49.98" lane="school_internal_in_0" slope="0.00"/>
        <vehicle id="flow_2_in.2" x="1106.73" y="462.51" angle="315.47" type="car" speed="13.21" pos="55.90" lane="-687674678#17_0" slope="0.00"/>
        <vehicle id="flow_2_out.2" x="867.31" y="381.41" angle="55.70" type="car" speed="7.18" pos="3.48" lane="27669908#4_0" slope="0.00"/>
        <vehicle id="flow_3_in.0" x="409.58" y="465.56" angle="139.92" type="car" speed="0.86" pos="128.68" lane="school_internal_in_0" slope="0.00"/>
    </timestep>
    <timestep time="23730.00">
        <vehicle id="flow_0_in.0" x="424.10" y="448.30" angle="139.92" type="car" speed="1.33" pos="151.23" lane="school_internal_in_0" slope="0.00"/>
        <vehicle id="flow_0_in.1" x="454.26" y="583.77" angle="264.54" type="car" speed="14.07" pos="139.30" lane="-27669888#0_0" slope="0.00"/>
        <vehicle id="flow_0_out.1" x="1329.01" y="100.18" angle="73.93" type="car" speed="13.65" pos="111.48" lane="690833054#1_0" slope="0.00"/>
        <vehicle id="flow_1_in.0" x="442.83" y="426.04" angle="139.92" type="car" speed="1.26" pos="180.32" lane="school_internal_in_0" slope="0.00"/>
        <vehicle id="flow_1_in.1" x="329.53" y="560.70" angle="139.08" type="car" speed="1.03" pos="4.34" lane="school_internal_in_0" slope="0.00"/>
        <vehicle id="flow_1_out.1" x="801.80" y="1044.86" angle="67.60" type="car" speed="12.62" pos="48.65" lane="27669874#3_0" slope="0.00"/>
        <vehicle id="flow_2_in.0" x="436.76" y="433.25" angle="139.92" type="car" speed="0.93" pos="170.90" lane="school_internal_in_0" slope="0.00"/>
        <vehicle id="flow_2_in.1" x="358.92" y="525.78" angle="139.92" type="car" speed="0.00" pos="49.98" lane="school_internal_in_0" slope="0.00"/>
        <vehicle id="flow_2_in.2" x="835.42" y="743.43" angle="315.94" type="car" speed="13.61" pos="49.54" lane="-687674678#11_0" slope="0.00"/>
        <vehicle id="flow_2_out.2" x="1069.28" y="497.49" angle="137.11" type="car" speed="12.05" pos="40.59" lane="687674678#16_0" slope="0.00"/>
        <vehicle id="flow_3_in.0" x="429.78" y="441.55" angle="139.92" type="car" speed="0.89" pos="160.05" lane="school_internal_in_0" slope="0.00"/>
    </timestep>
    <timestep time="23760.00">
        <vehicle id="flow_0_in.0" x="443.90" y="424.77" angle="139.92" type="car" speed="0.87" pos="181.98" lane="school_internal_in_0" slope="0.00"/>
        <vehicle id="flow_0_in.1" x="339.66" y="548.66" angle="139.92" type="car" speed="1.15" pos="20.07" lane="school_internal_in_0" slope="0.00"/>
        <vehicle id="flow_0_out.1" x="1530.17" y="77.53" angle="98.57" type="car" speed="3.11" pos="52.36" lane="856730052#2_0" slope="0.00"/>
        <vehicle id="flow_1_in.0" x="462.25" y="402.95" angle="139.92" type="car" speed="0.97" pos="210.49" lane="school_internal_in_0" slope="0.00"/>
        <vehicle id="flow_1_in.1" x="350.76" y="535.46" angle="139.92" type="car" speed="1.04" pos="37.32" lane="school_internal_in_0" slope="0.00"/>
        <vehicle id="flow_2_in.0" x="456.10" y="410.27" angle="139.92" type="car" speed="0.73" pos="200.93" lane="school_internal_in_0" slope="0.00"/>
        <vehicle id="flow_2_in.1" x="372.99" y="509.05" angle="139.92" type="car" speed="0.72" pos="71.84" lane="school_internal_in_0" slope="0.00"/>
        <vehicle id="flow_2_in.2" x="618.10" y="680.87" angle="263.39" type="car" speed="13.71" pos="56.27" lane="-27669894#2_0" slope="0.00"/>
        <vehicle id="flow_2_in.3" x="1312.98" y="580.08" angle="217.33" type="car" speed="1.31" pos="1.31" lane=":-745_1_0" slope="0.00"/>
        <vehicle id="flow_2_out.2" x="1267.42" y="528.81" angle="43.96" type="car" speed="12.64" pos="1.09" lane=":-16_7_0" slope="0.00"/>
        <vehicle id="flow_2_out.3" x="577.59" y="452.85" angle="356.84" type="car" speed="10.54" pos="33.92" lane="27669895#0_0" slope="0.00"/>
        <vehicle id="flow_3_in.0" x="450.33" y="417.13" angle="139.92" type="car" speed="0.95" pos="191.97" lane="school_internal_in_0" slope="0.00"/>
    </timestep>
    <timestep time="23790.00">
        <vehicle id="flow_0_in.0" x="464.72" y="400.02" angle="139.92" type="car" speed="0.89" pos="214.33" lane="school_internal_in_0" slope="0.00"/>
        <vehicle id="flow_0_in.1" x="354.08" y="531.52" angle="139.92" type="car" speed="0.00" pos="42.47" lane="school_internal_in_0" slope="0.00"/>
        <vehicle id="flow_1_in.0" x="482.09" y="379.38" angle="139.92" type="car" speed="0.75" pos="241.30" lane="school_internal_in_0" slope="0.00"/>
        <vehicle id="flow_1_in.1" x="358.93" y="525.76" angle="139.92" type="car" speed="0.00" pos="50.00" lane="school_internal_in_0" slope="0.00"/>
        <vehicle id="flow_2_in.0" x="475.80" y="386.86" angle="139.92" type="car" speed="0.80" pos="231.53" lane="school_internal_in_0" slope="0.00"/>
        <vehicle id="flow_2_in.1" x="391.56" y="486.98" angle="139.92" type="car" speed="1.20" pos="100.68" lane="school_internal_in_0" slope="0.00"/>
        <vehicle id="flow_2_in.2" x="318.46" y="600.38" angle="175.78" type="car" speed="13.03" pos="12.76" lane="821487355#1_0" slope="0.00"/>
        <vehicle id="flow_2_in.3" x="1114.83" y="609.15" angle="224.57" type="car" speed="11.60" pos="84.08" lane="-702927361_0" slope="0.00"/>
        <vehicle id="flow_2_out.3" x="752.78" y="502.19" angle="60.15" type="car" speed="12.69" pos="49.25" lane="27669907#2_0" slope="0.00"/>
        <vehicle id="flow_3_in.0" x="470.41" y="393.26" angle="139.92" type="car" speed="1.22" pos="223.15" lane="school_internal_in_0" slope="0.00"/>
    </timestep>
    <timestep time="23820.00">
        <vehicle id="flow_0_in.0" x="484.58" y="376.42" angle="139.92" type="car" speed="0.84" pos="245.16" lane="school_internal_in_0" slope="0.00"/>
        <vehicle id="flow_0_in.1" x="354.08" y="531.52" angle="139.92" type="car" speed="0.00" pos="42.47" lane="school_internal_in_0" slope="0.00"/>
        <vehicle id="flow_1_in.0" x="509.22" y="386.46" angle="66.34" type="car" speed="0.79" pos="272.29" lane="school_internal_in_0" slope="0.00"/>
        <vehicle id="flow_1_in.1" x="361.48" y="522.74" angle="139.92" type="car" speed="1.12" pos="53.95" lane="school_internal_in_0" slope="0.00"/>
        <vehicle id="flow_2_in.0" x="501.10" y="382.90" angle="66.34" type="car" speed="1.39" pos="263.41" lane="school_internal_in_0" slope="0.00"/>
        <vehicle id="flow_2_in.1" x="410.89" y="464.00" angle="139.92" type="car" speed="1.23" pos="130.71" lane="school_internal_in_0" slope="0.00"/>
        <vehicle id="flow_2_in.2" x="343.65" y="543.92" angle="139.92" type="car" speed="1.02" pos="26.27" lane="school_internal_in_0" slope="0.00"/>
        <vehicle id="flow_2_in.3" x="930.30" y="432.50" angle="233.22" type="car" speed="10.21" pos="5.70" lane="-27669908#4_0" slope="0.00"/>
        <vehicle id="flow_2_out.3" x="929.95" y="428.24" angle="53.22" type="car" speed="9.48" pos="81.68" lane="27669908#4_0" slope="0.00"/>
        <vehicle id="flow_3_in.0" x="492.73" y="379.24" angle="66.34" type="car" speed="1.27" pos="254.27" lane="school_internal_in_0" slope="0.00"/>
    </timestep>
    <timestep time="23850.00">
        <vehicle id="flow_0_in.0" x="512.93" y="388.09" angle="66.34" type="car" speed="0.98" pos="276.33" lane="school_internal_in_0" slope="0.00"/>
        <vehicle id="flow_0_in.1" x="373.36" y="508.61" angle="139.92" type="car" speed="1.35" pos="72.41" lane="school_internal_in_0" slope="0.00"/>
        <vehicle id="flow_0_in.2" x="1357.63" y="111.92" angle="253.25" type="car" speed="11.71" pos="58.46" lane="-690833054#2_0" slope="0.00"/>
        <vehicle id="flow_0_out.2" x="584.35" y="528.60" angle="14.44" type="car" speed="15.11" pos="110.45" lane="27669895#0_0" slope="0.00"/>
        <vehicle id="flow_1_in.0" x="539.01" y="399.51" angle="66.34" type="car" speed="1.29" pos="304.80" lane="school_internal_in_0" slope="0.00"/>
        <vehicle id="flow_1_in.1" x="382.42" y="497.84" angle="139.92" type="car" speed="1.18" pos="86.49" lane="school_internal_in_0" slope="0.00"/>
        <vehicle id="flow_1_in.2" x="486.16" y="1259.52" angle="249.45" type="car" speed="13.37" pos="40.74" lane="-27669866#2_0" slope="0.00"/>
        <vehicle id="flow_1_out.2" x="576.52" y="476.88" angle="358.10" type="car" speed="13.34" pos="57.98" lane="27669895#0_0" slope="0.00"/>
        <vehicle id="flow_2_in.0" x="530.37" y="395.73" angle="66.34" type="car" speed="0.82" pos="295.37" lane="school_internal_in_0" slope="0.00"/>
        <vehicle id="flow_2_in.1" x="430.46" y="440.74" angle="139.92" type="car" speed="0.98" pos="161.11" lane="school_internal_in_0" slope="0.00"/>
        <vehicle id="flow_2_in.2" x="358.92" y="525.78" angle="139.92" type="car" speed="0.00" pos="49.98" lane="school_internal_in_0" slope="0.00"/>
        <vehicle id="flow_2_in.3" x="735.42" y="495.92" angle="240.15" type="car" speed="11.06" pos="40.50" lane="-27669907#2_0" slope="0.00"/>
        <vehicle id="flow_2_out.3" x="1120.87" y="443.58" angle="135.48" type="car" speed="11.95" pos="31.31" lane="687674678#17_0" slope="0.00"/>
        <vehicle id="flow_3_in.0" x="521.28" y="391.75" angle="66.34" type="car" speed="1.35" pos="285.45" lane="school_internal_in_0" slope="0.00"/>
    </timestep>
    <timestep time="23880.00">
        <vehicle id="flow_0_in.0" x="541.30" y="400.51" angle="66.34" type="car" speed="1.07" pos="307.30" lane="school_internal_in_0" slope="0.00"/>
        <vehicle id="flow_0_in.1" x="395.37" y="482.44" angle="139.92" type="car" speed="0.97" pos="106.61" lane="school_internal_in_0" slope="0.00"/>
        <vehicle id="flow_0_in.2" x="1021.81" y="117.23" angle="311.46" type="car" speed="11.98" pos="76.59" lane="-690833052#1_0" slope="0.00"/>
        <vehicle id="flow_0_out.2" x="725.42" y="332.25" angle="145.12" type="car" speed="15.94" pos="37.15" lane="-27669907#0_0" slope="0.00"/>
        <vehicle id="flow_1_in.0" x="568.03" y="412.23" angle="66.34" type="car" speed="0.74" pos="336.49" lane="school_internal_in_0" slope="0.00"/>
        <vehicle id="flow_1_in.1" x="403.93" y="472.27" angle="139.92" type="car" speed="1.28" pos="119.90" lane="school_internal_in_0" slope="0.00"/>
        <vehicle id="flow_1_in.2" x="349.20" y="1140.25" angle="159.91" type="car" speed="13.19" pos="55.65" lane="27669946#1_0" slope="0.00"/>
        <vehicle id="flow_1_out.2" x="771.24" y="512.78" angle="60.15" type="car" speed="1.82" pos="70.53" lane="27669907#2_0" slope="0.00"/>
        <vehicle id="flow_2_in.0" x="560.15" y="408.78" angle="66.34" type="car" speed="1.35" pos="327.89" lane="school_internal_in_0" slope="0.00"/>
        <vehicle id="flow_2_in.1" x="449.83" y="417.72" angle="139.92" type="car" speed="1.19" pos="191.19" lane="school_internal_in_0" slope="0.00"/>
        <vehicle id="flow_2_in.2" x="358.92" y="525.78" angle="139.92" type="car" speed="0.00" pos="49.98" lane="school_internal_in_0" slope="0.00"/>
        <vehicle id="flow_2_in.3" x="481.62" y="586.33" angle="264.98" type="car" speed="11.11" pos="111.81" lane="-27669888#0_0" slope="0.00"/>
        <vehicle id="flow_2_in.4" x="1137.58" y="431.15" angle="315.47" type="car" speed="8.03" pos="11.91" lane="-687674678#17_0" slope="0.00"/>
        <vehicle id="flow_2_out.3" x="1321.65" y="585.96" angle="38.83" type="car" speed="11.91" pos="8.36" lane=":cluster_-746_6031965051_4_0" slope="0.00"/>
        <vehicle id="flow_2_out.4" x="580.00" y="509.78" angle="9.84" type="car" speed="11.85" pos="91.13" lane="27669895#0_0" slope="0.00"/>
        <vehicle id="flow_3_in.0" x="549.29" y="404.02" angle="66.34" type="car" speed="0.91" pos="316.03" lane="school_internal_in_0" slope="0.00"/>
    </timestep>
    <timestep time="23910.00">
        <vehicle id="flow_0_in.0" x="569.62" y="412.92" angle="66.34" type="car" speed="1.29" pos="338.22" lane="school_internal_in_0" slope="0.00"/>
        <vehicle id="flow_0_in.1" x="416.74" y="457.05" angle="139.92" type="car" speed="0.86" pos="139.80" lane="school_internal_in_0" slope="0.00"/>
        <vehicle id="flow_0_in.2" x="785.78" y="323.17" angle="233.62" type="car" speed="11.84" pos="34.23" lane="-27669908#2_0" slope="0.00"/>
        <vehicle id="flow_0_out.2" x="1008.04" y="125.28" angle="132.02" type="car" speed="15.45" pos="56.42" lane="690833052#1_0" slope="0.00"/>
        <vehicle id="flow_1_in.1" x="424.24" y="448.13" angle="139.92" type="car" speed="1.34" pos="151.45" lane="school_internal_in_0" slope="0.00"/>
        <vehicle id="flow_1_in.2" x="412.83" y="846.38" angle="211.79" type="car" speed="8.10" pos="5.01" lane=":cluster_-254_-998_12_0" slope="0.00"/>
        <vehicle id="flow_1_out.2" x="750.33" y="731.99" angle="48.88" type="car" speed="13.40" pos="34.57" lane="27669873#1_0" slope="0.00"/>
        <vehicle id="flow_2_in.1" x="468.49" y="395.54" angle="139.92" type="car" speed="0.99" pos="220.18" lane="school_internal_in_0" slope="0.00"/>
        <vehicle id="flow_2_in.2" x="374.06" y="507.77" angle="139.92" type="car" speed="1.27" pos="73.51" lane="school_internal_in_0" slope="0.00"/>
        <vehicle id="flow_2_in.3" x="334.02" y="555.37" angle="139.92" type="car" speed="0.78" pos="11.30" lane="school_internal_in_0" slope="0.00"/>
        <vehicle id="flow_2_in.4" x="869.69" y="708.02" angle="316.12" type="car" speed="13.21" pos="0.26" lane="-687674678#11_0" slope="0.00"/>
        <vehicle id="flow_2_out.4" x="771.98" y="513.21" angle="60.15" type="car" speed="0.21" pos="71.38" lane="27669907#2_0" slope="0.00"/>
    </timestep>
    <timestep time="23940.00">
        <vehicle id="flow_0_in.1" x="438.17" y="431.58" angle="139.92" type="car" speed="1.12" pos="173.08" lane="school_internal_in_0" slope="0.00"/>
        <vehicle id="flow_0_in.2" x="667.28" y="529.08" angle="312.45" type="car" speed="11.70" pos="57.63" lane="-27669888#1_0" slope="0.00"/>
        <vehicle id="flow_0_out.2" x="1413.62" y="126.16" angle="65.14" type="car" speed="5.33" pos="66.38" lane="690833054#2_0" slope="0.00"/>
        <vehicle id="flow_1_in.1" x="447.13" y="420.93" angle="139.92" type="car" speed="0.91" pos="187.00" lane="school_internal_in_0" slope="0.00"/>
        <vehicle id="flow_1_in.2" x="325.56" y="565.13" angle="133.23" type="car" speed="4.62" pos="5.50" lane=":-229_3_0" slope="0.00"/>
        <vehicle id="flow_1_out.2" x="714.29" y="921.97" angle="337.74" type="car" speed="13.49" pos="155.08" lane="-687674678#8_0" slope="0.00"/>