<?xml version="1.0" encoding="UTF-8"?>

<!-- generated on 2026-04-01T17:02:39.540164+02:00 by Eclipse SUMO sumo 1.26.0
<sumoConfiguration xmlns:xsi="http://www.w3.org/2001/XMLSchema-instance" xsi:noNamespaceSchemaLocation="http://sumo.dlr.de/xsd/sumoConfiguration.xsd">

    <input>
        <net-file value="C:\Users\neill\Github\tokai-sim\sim\sumo\bergvliet.net.xml"/>
        <route-files value="C:\Users\neill\Github\tokai-sim\sim\sumo\demand-L.rou.xml"/>
        <additional-files value="C:\Users\neill\Github\tokai-sim\sim\sumo\speed-humps.add.xml"/>
    </input>

    <output>
        <fcd-output value="C:\Users\neill\Github\tokai-sim\sim\sumo\fcd-L.xml"/>
        <tripinfo-output value="C:\Users\neill\Github\tokai-sim\sim\sumo\tripinfo-L.xml"/>
    </output>

    <time>
        <begin value="23400"/>
        <end value="30600"/>
        <step-length value="1"/>
    </time>

    <processing>
        <ignore-route-errors value="true"/>
    </processing>

    <routing>
        <routing-algorithm value="astar"/>
        <device.rerouting.probability value="1.0"/>
        <device.rerouting.period value="60"/>
        <device.rerouting.pre-period value="0"/>
    </routing>

    <report>
        <no-warnings value="true"/>
        <no-step-log value="true"/>
    </report>

    <fcd_device>
        <device.fcd.period value="60"/>
    </fcd_device>

</sumoConfiguration>
-->

<fcd-export xmlns:xsi="http://www.w3.org/2001/XMLSchema-instance" xsi:noNamespaceSchemaLocation="http://sumo.dlr.de/xsd/fcd_file.xsd">
    <timestep time="23400.00">
        <vehicle id="flow_0_in.0" x="1576.47" y="73.90" angle="278.01" type="car" speed="14.72" pos="5.10" lane="-690833056#0_0" slope="0.00"/>
        <vehicle id="flow_10_in.0" x="1313.77" y="581.12" angle="217.61" type="car" speed="14.03" pos="0.20" lane="-687674681_0" slope="0.00"/>
        <vehicle id="flow_15_in.0" x="425.28" y="1642.98" angle="159.00" type="car" speed="4.12" pos="0.20" lane="27669864_0" slope="0.00"/>
        <vehicle id="flow_5_in.0" x="711.02" y="1346.80" angle="261.83" type="car" speed="5.45" pos="0.20" lane="-687674693#1_0" slope="0.00"/>
    </timestep>
    <timestep time="23460.00">
        <vehicle id="flow_0_in.0" x="884.06" y="266.44" angle="322.04" type="car" speed="13.81" pos="6.09" lane=":-83_0_0" slope="0.00"/>
        <vehicle id="flow_10_in.0" x="815.15" y="763.83" angle="314.31" type="car" speed="5.97" pos="13.39" lane=":-329_4_0" slope="0.00"/>
        <vehicle id="flow_15_in.0" x="336.31" y="1175.50" angle="159.91" type="car" speed="14.20" pos="18.11" lane="27669946#1_0" slope="0.00"/>
        <vehicle id="flow_5_in.0" x="378.16" y="1061.07" angle="159.91" type="car" speed="6.56" pos="139.95" lane="27669946#1_0" slope="0.00"/>
    </timestep>
    <timestep time="23520.00">
        <vehicle id="flow_0_in.0" x="407.47" y="579.26" angle="264.19" type="car" speed="13.47" pos="186.31" lane="-27669888#0_0" slope="0.00"/>
        <vehicle id="flow_10_in.0" x="317.70" y="610.72" angle="175.41" type="car" speed="12.84" pos="2.39" lane="821487355#1_0" slope="0.00"/>
        <vehicle id="flow_15_in.0" x="320.91" y="570.74" angle="172.66" type="car" speed="5.13" pos="42.54" lane="821487355#1_0" slope="0.00"/>
        <vehicle id="flow_5_in.0" x="327.20" y="563.47" angle="130.30" type="car" speed="0.68" pos="0.72" lane="school_internal_in_0" slope="0.00"/>
    </timestep>
    <timestep time="23580.00">
        <vehicle id="flow_0_in.0" x="344.41" y="543.02" angle="139.92" type="car" speed="0.00" pos="27.44" lane="school_internal_in_0" slope="0.00"/>
        <vehicle id="flow_0_in.1" x="1566.09" y="75.39" angle="278.39" type="car" speed="10.48" pos="4.82" lane=":cluster_-793_-794_5_0" slope="0.00"/>
        <vehicle id="flow_10_in.0" x="349.24" y="537.28" angle="139.92" type="car" speed="0.00" pos="34.95" lane="school_internal_in_0" slope="0.00"/>
        <vehicle id="flow_10_in.1" x="884.86" y="398.52" angle="233.22" type="car" speed="14.17" pos="62.44" lane="-27669908#4_0" slope="0.00"/>
        <vehicle id="flow_15_in.0" x="354.07" y="531.53" angle="139.92" type="car" speed="0.00" pos="42.45" lane="school_internal_in_0" slope="0.00"/>
        <vehicle id="flow_5_in.0" x="358.91" y="525.78" angle="139.92" type="car" speed="0.00" pos="49.97" lane="school_internal_in_0" slope="0.00"/>
    </timestep>
    <timestep time="23640.00">
        <vehicle id="flow_0_in.0" x="357.20" y="527.82" angle="139.92" type="car" speed="1.36" pos="47.31" lane="school_internal_in_0" slope="0.00"/>
        <vehicle id="flow_0_in.1" x="996.33" y="140.14" angle="312.02" type="car" speed="11.20" pos="110.86" lane="-690833052#1_0" slope="0.00"/>
        <vehicle id="flow_10_in.0" x="363.05" y="520.86" angle="139.92" type="car" speed="1.05" pos="56.40" lane="school_internal_in_0" slope="0.00"/>
        <vehicle id="flow_10_in.1" x="330.06" y="571.38" angle="264.19" type="car" speed="8.79" pos="264.10" lane="-27669888#0_0" slope="0.00"/>
        <vehicle id="flow_15_in.0" x="368.92" y="513.89" angle="139.92" type="car" speed="0.96" pos="65.52" lane="school_internal_in_0" slope="0.00"/>
        <vehicle id="flow_15_in.1" x="490.91" y="1261.30" angle="249.45" type="car" speed="12.30" pos="35.67" lane="-27669866#2_0" slope="0.00"/>
        <vehicle id="flow_5_in.0" x="374.59" y="507.15" angle="139.92" type="car" speed="0.84" pos="74.32" lane="school_internal_in_0" slope="0.00"/>
        <vehicle id="flow_5_in.1" x="516.68" y="1270.96" angle="249.45" type="car" speed="8.00" pos="8.15" lane="-27669866#2_0" slope="0.00"/>
    </timestep>
    <timestep time="23700.00">
        <vehicle id="flow_0_in.0" x="394.80" y="483.13" angle="139.92" type="car" speed="0.99" pos="105.71" lane="school_internal_in_0" slope="0.00"/>
        <vehicle id="flow_0_in.1" x="698.51" y="486.28" angle="330.23" type="car" speed="5.63" pos="4.37" lane="-27669888#1_0" slope="0.00"/>
        <vehicle id="flow_10_in.0" x="400.39" y="476.48" angle="139.92" type="car" speed="0.49" pos="114.40" lane="school_internal_in_0" slope="0.00"/>
        <vehicle id="flow_10_in.1" x="358.93" y="525.76" angle="139.92" type="car" speed="0.00" pos="50.00" lane="school_internal_in_0" slope="0.00"/>
        <vehicle id="flow_10_in.2" x="1102.15" y="596.28" angle="224.57" type="car" speed="11.96" pos="102.15" lane="-702927361_0" slope="0.00"/>
        <vehicle id="flow_15_in.0" x="406.35" y="469.40" angle="139.92" type="car" speed="1.28" pos="123.66" lane="school_internal_in_0" slope="0.00"/>
        <vehicle id="flow_15_in.1" x="395.56" y="843.29" angle="265.96" type="car" speed="8.29" pos="5.88" lane="-1031107370#1_0" slope="0.00"/>
        <vehicle id="flow_5_in.0" x="412.41" y="462.19" angle="139.92" type="car" speed="1.04" pos="133.07" lane="school_internal_in_0" slope="0.00"/>
        <vehicle id="flow_5_in.1" x="377.85" y="970.28" angle="157.56" type="car" speed="11.91" pos="64.59" lane="27669889#0_0" slope="0.00"/>
    </timestep>
    <timestep time="23760.00">
        <vehicle id="flow_0_in.0" x="433.56" y="437.06" angle="139.92" type="car" speed="1.07" pos="165.92" lane="school_internal_in_0" slope="0.00"/>
        <vehicle id="flow_0_in.1" x="336.08" y="552.92" angle="139.92" type="car" speed="0.80" pos="14.50" lane="school_internal_in_0" slope="0.00"/>
        <vehicle id="flow_0_in.2" x="1553.51" y="77.25" angle="278.40" type="car" speed="11.77" pos="17.54" lane=":cluster_-793_-794_5_0" slope="0.00"/>
        <vehicle id="flow_10_in.0" x="439.37" y="430.15" angle="139.92" type="car" speed="0.95" pos="174.95" lane="school_internal_in_0" slope="0.00"/>
        <vehicle id="flow_10_in.1" x="374.66" y="507.06" angle="139.92" type="car" speed="1.34" pos="74.44" lane="school_internal_in_0" slope="0.00"/>
        <vehicle id="flow_10_in.2" x="701.39" y="481.73" angle="297.40" type="car" speed="5.32" pos="8.06" lane=":-248_0_0" slope="0.00"/>
        <vehicle id="flow_15_in.0" x="444.99" y="423.48" angle="139.92" type="car" speed="1.20" pos="183.67" lane="school_internal_in_0" slope="0.00"/>
        <vehicle id="flow_15_in.1" x="350.03" y="536.34" angle="139.92" type="car" speed="1.35" pos="36.18" lane="school_internal_in_0" slope="0.00"/>
        <vehicle id="flow_5_in.0" x="450.67" y="416.72" angle="139.92" type="car" speed="0.94" pos="192.50" lane="school_internal_in_0" slope="0.00"/>
        <vehicle id="flow_5_in.1" x="330.19" y="559.92" angle="139.92" type="car" speed="0.95" pos="5.35" lane="school_internal_in_0" slope="0.00"/>
    </timestep>
    <timestep time="23820.00">
        <vehicle id="flow_0_in.0" x="471.76" y="391.65" angle="139.92" type="car" speed="1.04" pos="225.26" lane="school_internal_in_0" slope="0.00"/>
        <vehicle id="flow_0_in.1" x="354.10" y="531.50" angle="139.92" type="car" speed="0.00" pos="42.50" lane="school_internal_in_0" slope="0.00"/>
        <vehicle id="flow_0_in.2" x="970.05" y="163.82" angle="312.02" type="car" speed="10.95" pos="146.23" lane="-690833052#1_0" slope="0.00"/>
        <vehicle id="flow_10_in.0" x="477.52" y="384.81" angle="139.92" type="car" speed="1.35" pos="234.20" lane="school_internal_in_0" slope="0.00"/>
        <vehicle id="flow_10_in.1" x="416.74" y="457.05" angle="139.92" type="car" speed="1.38" pos="139.79" lane="school_internal_in_0" slope="0.00"/>
        <vehicle id="flow_10_in.2" x="340.24" y="547.97" angle="139.92" type="car" speed="1.20" pos="20.97" lane="school_internal_in_0" slope="0.00"/>
        <vehicle id="flow_10_in.3" x="860.05" y="717.99" angle="315.94" type="car" speed="14.05" pos="14.13" lane="-687674678#11_0" slope="0.00"/>
        <vehicle id="flow_15_in.0" x="483.66" y="377.51" angle="139.92" type="car" speed="0.88" pos="243.74" lane="school_internal_in_0" slope="0.00"/>
        <vehicle id="flow_15_in.1" x="359.52" y="525.06" angle="139.92" type="car" speed="0.92" pos="50.92" lane="school_internal_in_0" slope="0.00"/>
        <vehicle id="flow_15_in.2" x="450.09" y="1515.80" angle="178.93" type="car" speed="13.05" pos="34.63" lane="687674678#1_0" slope="0.00"/>
        <vehicle id="flow_5_in.0" x="491.10" y="378.52" angle="66.34" type="car" speed="1.11" pos="252.50" lane="school_internal_in_0" slope="0.00"/>
        <vehicle id="flow_5_in.1" x="349.27" y="537.24" angle="139.92" type="car" speed="0.00" pos="35.00" lane="school_internal_in_0" slope="0.00"/>
    </timestep>
    <timestep time="23880.00">
        <vehicle id="flow_0_in.0" x="520.99" y="391.62" angle="66.34" type="car" speed="1.41" pos="285.13" lane="school_internal_in_0" slope="0.00"/>
        <vehicle id="flow_0_in.1" x="377.12" y="504.14" angle="139.92" type="car" speed="0.83" pos="78.25" lane="school_internal_in_0" slope="0.00"/>
        <vehicle id="flow_0_in.2" x="669.29" y="527.24" angle="312.45" type="car" speed="11.36" pos="54.91" lane="-27669888#1_0" slope="0.00"/>
        <vehicle id="flow_10_in.0" x="529.27" y="395.25" angle="66.34" type="car" speed="1.30" pos="294.17" lane="school_internal_in_0" slope="0.00"/>
        <vehicle id="flow_10_in.1" x="459.17" y="406.61" angle="139.92" type="car" speed="1.17" pos="205.71" lane="school_internal_in_0" slope="0.00"/>
        <vehicle id="flow_10_in.2" x="349.03" y="537.53" angle="139.92" type="car" speed="1.05" pos="34.62" lane="school_internal_in_0" slope="0.00"/>
        <vehicle id="flow_10_in.3" x="320.97" y="570.61" angle="172.10" type="car" speed="9.88" pos="42.68" lane="821487355#1_0" slope="0.00"/>
        <vehicle id="flow_15_in.0" x="537.22" y="398.73" angle="66.34" type="car" speed="1.15" pos="302.85" lane="school_internal_in_0" slope="0.00"/>
        <vehicle id="flow_15_in.1" x="401.76" y="474.85" angle="139.92" type="car" speed="0.91" pos="116.53" lane="school_internal_in_0" slope="0.00"/>
        <vehicle id="flow_15_in.2" x="376.31" y="1066.12" angle="159.91" type="car" speed="11.42" pos="134.58" lane="27669946#1_0" slope="0.00"/>
        <vehicle id="flow_5_in.0" x="545.27" y="402.25" angle="66.34" type="car" speed="0.88" pos="311.64" lane="school_internal_in_0" slope="0.00"/>
        <vehicle id="flow_5_in.1" x="371.51" y="510.81" angle="139.92" type="car" speed="0.71" pos="69.53" lane="school_internal_in_0" slope="0.00"/>
        <vehicle id="flow_5_in.2" x="350.38" y="1137.03" angle="159.91" type="car" speed="13.56" pos="59.08" lane="27669946#1_0" slope="0.00"/>
    </timestep>
    <timestep time="23940.00">
        <vehicle id="flow_0_in.0" x="577.58" y="416.63" angle="63.99" type="car" speed="3.06" pos="3.46" lane=":-294_0_0" slope="0.00"/>
        <vehicle id="flow_0_in.1" x="411.80" y="462.92" angle="139.92" type="car" speed="0.87" pos="132.12" lane="school_internal_in_0" slope="0.00"/>
        <vehicle id="flow_0_in.2" x="338.74" y="549.76" angle="139.92" type="car" speed="0.83" pos="18.64" lane="school_internal_in_0" slope="0.00"/>
        <vehicle id="flow_0_in.3" x="1523.63" y="81.75" angle="278.58" type="car" speed="13.22" pos="26.40" lane="-856730052#2_0" slope="0.00"/>
        <vehicle id="flow_10_in.0" x="577.79" y="496.58" angle="7.51" type="car" speed="13.27" pos="77.75" lane="27669895#0_0" slope="0.00"/>
        <vehicle id="flow_10_in.1" x="505.76" y="384.95" angle="66.34" type="car" speed="0.80" pos="268.50" lane="school_internal_in_0" slope="0.00"/>
        <vehicle id="flow_10_in.2" x="385.96" y="493.63" angle="139.92" type="car" speed="0.84" pos="91.99" lane="school_internal_in_0" slope="0.00"/>
        <vehicle id="flow_10_in.3" x="358.93" y="525.76" angle="139.92" type="car" speed="0.00" pos="49.99" lane="school_internal_in_0" slope="0.00"/>
        <vehicle id="flow_10_in.4" x="1312.74" y="579.77" angle="217.31" type="car" speed="1.70" pos="1.70" lane=":-745_1_0" slope="0.00"/>
        <vehicle id="flow_15_in.0" x="631.55" y="546.26" angle="115.75" type="car" speed="12.54" pos="33.36" lane="27669888#1_0" slope="0.00"/>
        <vehicle id="flow_15_in.1" x="444.40" y="424.17" angle="139.92" type="car" speed="1.29" pos="182.76" lane="school_internal_in_0" slope="0.00"/>
        <vehicle id="flow_15_in.2" x="330.41" y="559.66" angle="139.92" type="car" speed="1.15" pos="5.70" lane="school_internal_in_0" slope="0.00"/>
        <vehicle id="flow_5_in.0" x="691.89" y="491.15" angle="148.98" type="car" speed="12.24" pos="117.19" lane="27669888#1_0" slope="0.00"/>
        <vehicle id="flow_5_in.1" x="406.10" y="469.70" angle="139.92" type="car" speed="0.87" pos="123.26" lane="school_internal_in_0" slope="0.00"/>
        <vehicle id="flow_5_in.2" x="323.76" y="566.41" angle="146.23" type="car" speed="1.28" pos="3.28" lane=":-229_3_0" slope="0.00"/>
    </timestep>
    <timestep time="24000.00">
        <vehicle id="flow_0_in.0" x="875.79" y="271.87" angle="142.19" type="car" speed="14.07" pos="85.95" lane="27669865#0_0" slope="0.00"/>
        <vehicle id="flow_0_in.1" x="442.94" y="425.90" angle="139.92" type="car" speed="0.73" pos="180.50" lane="school_internal_in_0" slope="0.00"/>
        <vehicle id="flow_0_in.2" x="354.09" y="531.51" angle="139.92" type="car" speed="0.00" pos="42.48" lane="school_internal_in_0" slope="0.00"/>
        <vehicle id="flow_0_in.3" x="891.97" y="256.36" angle="321.74" type="car" speed="12.64" pos="53.20" lane="-27669865#1_0" slope="0.00"/>
        <vehicle id="flow_10_in.0" x="966.70" y="460.83" angle="45.84" type="car" speed="13.17" pos="23.00" lane="27669908#5_0" slope="0.00"/>
        <vehicle id="flow_10_in.1" x="564.10" y="410.50" angle="66.34" type="car" speed="1.04" pos="332.19" lane="school_internal_in_0" slope="0.00"/>
        <vehicle id="flow_10_in.2" x="425.34" y="446.83" angle="139.92" type="car" speed="0.99" pos="153.15" lane="school_internal_in_0" slope="0.00"/>
        <vehicle id="flow_10_in.3" x="379.57" y="501.23" angle="139.92" type="car" speed="1.24" pos="82.06" lane="school_internal_in_0" slope="0.00"/>
        <vehicle id="flow_10_in.4" x="808.08" y="770.76" angle="315.80" type="car" speed="3.84" pos="9.12" lane="-687674678#10_0" slope="0.00"/>
        <vehicle id="flow_15_in.0" x="749.47" y="844.97" angle="330.27" type="car" speed="13.20" pos="70.34" lane="-687674678#8_0" slope="0.00"/>
        <vehicle id="flow_15_in.1" x="486.86" y="376.67" angle="111.91" type="car" speed="1.06" pos="247.87" lane="school_internal_in_0" slope="0.00"/>
        <vehicle id="flow_15_in.2" x="349.26" y="537.26" angle="139.92" type="car" speed="0.00" pos="34.98" lane="school_internal_in_0" slope="0.00"/>
        <vehicle id="flow_5_in.0" x="739.42" y="863.97" angle="334.30" type="car" speed="12.07" pos="91.84" lane="-687674678#8_0" slope="0.00"/>
        <vehicle id="flow_5_in.1" x="437.63" y="432.22" angle="139.92" type="car" speed="0.75" pos="172.24" lane="school_internal_in_0" slope="0.00"/>
        <vehicle id="flow_5_in.2" x="344.35" y="543.08" angle="139.92" type="car" speed="0.00" pos="27.36" lane="school_internal_in_0" slope="0.00"/>
    </timestep>
    <timestep time="24060.00">
        <vehicle id="flow_0_in.0" x="1501.31" y="81.87" angle="99.05" type="car" speed="3.31" pos="23.17" lane="856730052#2_0" slope="0.00"/>
        <vehicle id="flow_0_in.1" x="478.43" y="383.72" angle="139.92" type="car" speed="0.63" pos="235.62" lane="school_internal_in_0" slope="0.00"/>
        <vehicle id="flow_0_in.2" x="378.98" y="501.92" angle="139.92" type="car" speed="0.88" pos="81.15" lane="school_internal_in_0" slope="0.00"/>
        <vehicle id="flow_0_in.3" x="481.50" y="586.32" angle="264.98" type="car" speed="12.88" pos="111.94" lane="-27669888#0_0" slope="0.00"/>
        <vehicle id="flow_10_in.0" x="1315.01" y="582.74" angle="218.34" type="car" speed="8.39" pos="15.51" lane=":cluster_-746_6031965051_0_0" slope="0.00"/>
        <vehicle id="flow_10_in.1" x="820.60" y="438.42" angle="150.70" type="car" speed="13.97" pos="83.45" lane="27669894#4_0" slope="0.00"/>
        <vehicle id="flow_10_in.2" x="461.93" y="403.34" angle="139.92" type="car" speed="0.66" pos="209.98" lane="school_internal_in_0" slope="0.00"/>
        <vehicle id="flow_10_in.3" x="424.29" y="448.07" angle="139.92" type="car" speed="1.16" pos="151.52" lane="school_internal_in_0" slope="0.00"/>
        <vehicle id="flow_10_in.4" x="330.72" y="559.29" angle="139.92" type="car" speed="0.91" pos="6.18" lane="school_internal_in_0" slope="0.00"/>
        <vehicle id="flow_10_in.5" x="1093.01" y="587.00" angle="224.57" type="car" speed="11.91" pos="115.17" lane="-702927361_0" slope="0.00"/>
        <vehicle id="flow_15_in.0" x="668.91" y="1418.54" angle="337.75" type="car" speed="16.43" pos="76.61" lane="-27669868#2_0" slope="0.00"/>
        <vehicle id="flow_15_in.1" x="545.53" y="402.37" angle="66.34" type="car" speed="1.24" pos="311.93" lane="school_internal_in_0" slope="0.00"/>
        <vehicle id="flow_15_in.2" x="373.32" y="508.66" angle="139.92" type="car" speed="0.69" pos="72.35" lane="school_internal_in_0" slope="0.00"/>
        <vehicle id="flow_15_in.3" x="452.73" y="1246.99" angle="249.45" type="car" speed="0.17" pos="76.44" lane="-27669866#2_0" slope="0.00"/>
        <vehicle id="flow_5_in.1" x="472.03" y="391.33" angle="139.92" type="car" speed="0.79" pos="225.68" lane="school_internal_in_0" slope="0.00"/>
        <vehicle id="flow_5_in.2" x="367.77" y="515.25" angle="139.92" type="car" speed="1.14" pos="63.73" lane="school_internal_in_0" slope="0.00"/>
        <vehicle id="flow_5_in.3" x="539.99" y="1279.79" angle="248.98" type="car" speed="6.09" pos="1.87" lane=":-91_0_0" slope="0.00"/>
    </timestep>
    <timestep time="24120.00">
        <vehicle id="flow_0_in.1" x="523.25" y="392.61" angle="66.34" type="car" speed="0.91" pos="287.60" lane="school_internal_in_0" slope="0.00"/>
        <vehicle id="flow_0_in.2" x="412.58" y="461.99" angle="139.92" type="car" speed="0.65" pos="133.34" lane="school_internal_in_0" slope="0.00"/>
        <vehicle id="flow_0_in.3" x="354.07" y="531.54" angle="139.92" type="car" speed="0.00" pos="42.44" lane="school_internal_in_0" slope="0.00"/>
        <vehicle id="flow_0_in.4" x="1515.55" y="82.96" angle="278.58" type="car" speed="12.76" pos="34.57" lane="-856730052#2_0" slope="0.00"/>
        <vehicle id="flow_10_in.1" x="1263.13" y="524.36" angle="44.05" type="car" speed="14.01" pos="101.74" lane="25867240#2_0" slope="0.00"/>
        <vehicle id="flow_10_in.2" x="506.78" y="385.39" angle="66.34" type="car" speed="0.90" pos="269.62" lane="school_internal_in_0" slope="0.00"/>
        <vehicle id="flow_10_in.3" x="469.48" y="394.37" angle="139.92" type="car" speed="1.05" pos="221.71" lane="school_internal_in_0" slope="0.00"/>
        <vehicle id="flow_10_in.4" x="358.92" y="525.77" angle="139.92" type="car" speed="0.00" pos="49.99" lane="school_internal_in_0" slope="0.00"/>
        <vehicle id="flow_10_in.5" x="696.69" y="489.34" angle="329.20" type="car" speed="7.36" pos="7.93" lane="-27669888#1_0" slope="0.00"/>
        <vehicle id="flow_15_in.1" x="716.12" y="481.15" angle="60.15" type="car" speed="7.55" pos="6.97" lane="27669907#2_0" slope="0.00"/>
        <vehicle id="flow_15_in.2" x="407.24" y="468.34" angle="139.92" type="car" speed="0.92" pos="125.04" lane="school_internal_in_0" slope="0.00"/>
        <vehicle id="flow_15_in.3" x="414.79" y="854.49" angle="172.64" type="car" speed="7.69" pos="107.20" lane="27669889#1_0" slope="0.00"/>
        <vehicle id="flow_5_in.1" x="514.87" y="388.94" angle="66.34" type="car" speed="0.97" pos="278.45" lane="school_internal_in_0" slope="0.00"/>
        <vehicle id="flow_5_in.2" x="401.67" y="474.96" angle="139.92" type="car" speed="0.51" pos="116.38" lane="school_internal_in_0" slope="0.00"/>
        <vehicle id="flow_5_in.3" x="391.47" y="935.99" angle="158.53" type="car" speed="12.95" pos="21.78" lane="27669889#1_0" slope="0.00"/>
    </timestep>
    <timestep time="24180.00">
        <vehicle id="flow_0_in.1" x="571.55" y="413.77" angle="66.34" type="car" speed="1.09" pos="340.33" lane="school_internal_in_0" slope="0.00"/>
        <vehicle id="flow_0_in.2" x="448.00" y="419.89" angle="139.92" type="car" speed="0.87" pos="188.35" lane="school_internal_in_0" slope="0.00"/>
        <vehicle id="flow_0_in.3" x="370.36" y="512.18" angle="139.92" type="car" speed="1.29" pos="67.75" lane="school_internal_in_0" slope="0.00"/>
        <vehicle id="flow_0_in.4" x="901.44" y="244.34" angle="321.74" type="car" speed="12.98" pos="37.90" lane="-27669865#1_0" slope="0.00"/>
        <vehicle id="flow_10_in.2" x="554.32" y="406.22" angle="66.34" type="car" speed="0.72" pos="321.52" lane="school_internal_in_0" slope="0.00"/>
        <vehicle id="flow_10_in.3" x="524.50" y="393.16" angle="66.34" type="car" speed="1.49" pos="288.97" lane="school_internal_in_0" slope="0.00"/>
        <vehicle id="flow_10_in.4" x="387.68" y="491.59" angle="139.92" type="car" speed="1.51" pos="94.66" lane="school_internal_in_0" slope="0.00"/>
        <vehicle id="flow_10_in.5" x="329.18" y="561.12" angle="141.33" type="car" speed="1.24" pos="3.79" lane="school_internal_in_0" slope="0.00"/>
        <vehicle id="flow_10_in.6" x="893.64" y="683.04" angle="316.28" type="car" speed="15.07" pos="44.45" lane="-687674678#12_0" slope="0.00"/>
        <vehicle id="flow_15_in.1" x="691.52" y="978.02" angle="337.94" type="car" speed="12.56" pos="47.55" lane="-687674678#7_0" slope="0.00"/>
        <vehicle id="flow_15_in.2" x="442.13" y="426.88" angle="139.92" type="car" speed="0.79" pos="179.23" lane="school_internal_in_0" slope="0.00"/>
        <vehicle id="flow_15_in.3" x="340.64" y="547.50" angle="139.92" type="car" speed="0.75" pos="21.59" lane="school_internal_in_0" slope="0.00"/>
        <vehicle id="flow_5_in.1" x="562.64" y="409.87" angle="66.34" type="car" speed="0.75" pos="330.60" lane="school_internal_in_0" slope="0.00"/>
        <vehicle id="flow_5_in.2" x="436.77" y="433.24" angle="139.92" type="car" speed="0.90" pos="170.91" lane="school_internal_in_0" slope="0.00"/>
        <vehicle id="flow_5_in.3" x="334.87" y="554.35" angle="139.92" type="car" speed="0.94" pos="12.63" lane="school_internal_in_0" slope="0.00"/>
    </timestep>
    <timestep time="24240.00">
        <vehicle id="flow_0_in.1" x="750.47" y="301.50" angle="116.96" type="car" speed="11.38" pos="77.39" lane="-27669907#0_0" slope="0.00"/>
        <vehicle id="flow_0_in.2" x="483.99" y="377.12" angle="139.92" type="car" speed="1.00" pos="244.25" lane="school_internal_in_0" slope="0.00"/>
        <vehicle id="flow_0_in.3" x="408.76" y="466.54" angle="139.92" type="car" speed="0.96" pos="127.40" lane="school_internal_in_0" slope="0.00"/>
        <vehicle id="flow_0_in.4" x="515.88" y="589.34" angle="264.98" type="car" speed="12.88" pos="77.43" lane="-27669888#0_0" slope="0.00"/>
        <vehicle id="flow_10_in.2" x="750.72" y="501.01" angle="60.15" type="car" speed="12.84" pos="46.88" lane="27669907#2_0" slope="0.00"/>
        <vehicle id="flow_10_in.3" x="586.77" y="536.82" angle="17.63" type="car" speed="14.59" pos="119.03" lane="27669895#0_0" slope="0.00"/>
        <vehicle id="flow_10_in.4" x="431.28" y="439.77" angle="139.92" type="car" speed="0.96" pos="162.38" lane="school_internal_in_0" slope="0.00"/>
        <vehicle id="flow_10_in.5" x="349.25" y="537.27" angle="139.92" type="car" speed="0.00" pos="34.96" lane="school_internal_in_0" slope="0.00"/>
        <vehicle id="flow_10_in.6" x="320.54" y="572.15" angle="175.78" type="car" speed="11.91" pos="41.07" lane="821487355#1_0" slope="0.00"/>
        <vehicle id="flow_15_in.1" x="539.32" y="1659.02" angle="305.85" type="car" speed="15.69" pos="65.87" lane="-27669868#0_0" slope="0.00"/>
        <vehicle id="flow_15_in.2" x="478.07" y="384.15" angle="139.92" type="car" speed="0.84" pos="235.06" lane="school_internal_in_0" slope="0.00"/>
        <vehicle id="flow_15_in.3" x="358.93" y="525.76" angle="139.92" type="car" speed="0.00" pos="50.00" lane="school_internal_in_0" slope="0.00"/>
        <vehicle id="flow_15_in.4" x="484.35" y="1357.35" angle="155.49" type="car" speed="13.99" pos="15.22" lane="687674678#3_0" slope="0.00"/>
        <vehicle id="flow_5_in.1" x="776.76" y="523.14" angle="359.67" type="car" speed="5.95" pos="11.90" lane=":-292_4_0" slope="0.00"/>
        <vehicle id="flow_5_in.2" x="472.65" y="390.60" angle="139.92" type="car" speed="0.66" pos="226.63" lane="school_internal_in_0" slope="0.00"/>
        <vehicle id="flow_5_in.3" x="354.08" y="531.53" angle="139.92" type="car" speed="0.00" pos="42.47" lane="school_internal_in_0" slope="0.00"/>
    </timestep>
    <timestep time="24300.00">
        <vehicle id="flow_0_in.1" x="1221.52" y="78.65" angle="81.74" type="car" speed="10.77" pos="1.61" lane="690833054#1_0" slope="0.00"/>
        <vehicle id="flow_0_in.2" x="531.72" y="396.32" angle="66.34" type="car" speed="0.75" pos="296.84" lane="school_internal_in_0" slope="0.00"/>
        <vehicle id="flow_0_in.3" x="447.92" y="419.98" angle="139.92" type="car" speed="0.88" pos="188.23" lane="school_internal_in_0" slope="0.00"/>
        <vehicle id="flow_0_in.4" x="352.98" y="532.84" angle="139.92" type="car" speed="1.26" pos="40.75" lane="school_internal_in_0" slope="0.00"/>
        <vehicle id="flow_0_in.5" x="1493.51" y="86.43" angle="280.21" type="car" speed="11.91" pos="56.88" lane="-856730052#2_0" slope="0.00"/>
        <vehicle id="flow_10_in.2" x="1102.58" y="462.17" angle="135.48" type="car" speed="12.16" pos="5.23" lane="687674678#17_0" slope="0.00"/>
        <vehicle id="flow_10_in.3" x="1018.10" y="510.74" angle="45.84" type="car" speed="14.29" pos="94.64" lane="27669908#5_0" slope="0.00"/>
        <vehicle id="flow_10_in.4" x="475.45" y="387.26" angle="139.92" type="car" speed="1.16" pos="230.99" lane="school_internal_in_0" slope="0.00"/>
        <vehicle id="flow_10_in.5" x="371.71" y="510.57" angle="139.92" type="car" speed="0.73" pos="69.85" lane="school_internal_in_0" slope="0.00"/>
        <vehicle id="flow_10_in.6" x="358.93" y="525.76" angle="139.92" type="car" speed="0.00" pos="50.00" lane="school_internal_in_0" slope="0.00"/>
        <vehicle id="flow_10_in.7" x="1312.63" y="579.61" angle="217.30" type="car" speed="1.89" pos="1.89" lane=":-745_1_0" slope="0.00"/>
        <vehicle id="flow_15_in.2" x="524.06" y="392.96" angle="66.34" type="car" speed="0.92" pos="288.48" lane="school_internal_in_0" slope="0.00"/>
        <vehicle id="flow_15_in.3" x="383.81" y="496.19" angle="139.92" type="car" speed="1.11" pos="88.64" lane="school_internal_in_0" slope="0.00"/>
        <vehicle id="flow_15_in.4" x="367.35" y="995.68" angle="157.56" type="car" speed="14.03" pos="37.10" lane="27669889#0_0" slope="0.00"/>
        <vehicle id="flow_5_in.1" x="704.58" y="1004.69" angle="67.51" type="car" speed="9.13" pos="16.64" lane="27669874#1_0" slope="0.00"/>
        <vehicle id="flow_5_in.2" x="515.89" y="389.38" angle="66.34" type="car" speed="0.81" pos="279.56" lane="school_internal_in_0" slope="0.00"/>
        <vehicle id="flow_5_in.3" x="377.79" y="503.35" angle="139.92" type="car" speed="0.90" pos="79.29" lane="school_internal_in_0" slope="0.00"/>
        <vehicle id="flow_5_in.4" x="323.75" y="1243.91" angle="224.30" type="car" speed="7.90" pos="6.31" lane=":-87_9_0" slope="0.00"/>
    </timestep>
    <timestep time="24360.00">
        <vehicle id="flow_0_in.1" x="1578.24" y="70.42" angle="98.01" type="car" speed="9.29" pos="7.90" lane="690833056#0_1" slope="0.00"/>
        <vehicle id="flow_0_in.2" x="576.47" y="481.22" angle="359.16" type="car" speed="11.09" pos="62.32" lane="27669895#0_0" slope="0.00"/>
        <vehicle id="flow_0_in.3" x="488.61" y="377.43" angle="80.47" type="car" speed="0.91" pos="249.78" lane="school_internal_in_0" slope="0.00"/>
        <vehicle id="flow_0_in.4" x="360.76" y="523.59" angle="139.92" type="car" speed="0.84" pos="52.84" lane="school_internal_in_0" slope="0.00"/>
        <vehicle id="flow_0_in.5" x="914.25" y="228.10" angle="321.74" type="car" speed="11.64" pos="17.22" lane="-27669865#1_0" slope="0.00"/>
        <vehicle id="flow_10_in.3" x="1307.26" y="570.52" angle="44.93" type="car" speed="0.00" pos="2.59" lane=":6031965052_1_0" slope="0.00"/>