<?xml version="1.0" encoding="UTF-8"?>

<!-- generated on 2026-04-01T17:02:44.787380+02:00 by Eclipse SUMO sumo 1.26.0
<sumoConfiguration xmlns:xsi="http://www.w3.org/2001/XMLSchema-instance" xsi:noNamespaceSchemaLocation="http://sumo.dlr.de/xsd/sumoConfiguration.xsd">

    <input>
        <net-file value="C:\Users\neill\Github\tokai-sim\sim\sumo\bergvliet.net.xml"/>
        <route-files value="C:\Users\neill\Github\tokai-sim\sim\sumo\demand-M.rou.xml"/>
        <additional-files value="C:\Users\neill\Github\tokai-sim\sim\sumo\speed-humps.add.xml"/>
    </input>

    <output>
        <fcd-output value="C:\Users\neill\Github\tokai-sim\sim\sumo\fcd-M.xml"/>
        <tripinfo-output value="C:\Users\neill\Github\tokai-sim\sim\sumo\tripinfo-M.xml"/>
    </output>

    <time>
        <begin value="23400"/>
        <end value="30600"/>
        <step-length value="1"/>
    </time>

    <processing>
        <ignore-route-errors value="true"/>
    </processing>

    <routing>
        <routing-algorithm value="astar"/>
        <device.rerouting.probability value="1.0"/>
        <device.rerouting.period value="60"/>
        <device.rerouting.pre-period value="0"/>
    </routing>

    <report>
        <no-warnings value="true"/>
        <no-step-log value="true"/>
    </report>

    <fcd_device>
        <device.fcd.period value="60"/>
    </fcd_device>

</sumoConfiguration>
-->

<fcd-export xmlns:xsi="http://www.w3.org/2001/XMLSchema-instance" xsi:noNamespaceSchemaLocation="http://sumo.dlr.de/xsd/fcd_file.xsd">
    <timestep time="23400.00">
        <vehicle id="flow_0_in.0" x="1576.47" y="73.90" angle="278.01" type="car" speed="14.72" pos="5.10" lane="-690833056#0_0" slope="0.00"/>
        <vehicle id="flow_10_in.0" x="1313.77" y="581.12" angle="217.61" type="car" speed="14.03" pos="0.20" lane="-687674681_0" slope="0.00"/>
        <vehicle id="flow_15_in.0" x="425.28" y="1642.98" angle="159.00" type="car" speed="4.12" pos="0.20" lane="27669864_0" slope="0.00"/>
        <vehicle id="flow_5_in.0" x="711.02" y="1346.80" angle="261.83" type="car" speed="5.45" pos="0.20" lane="-687674693#1_0" slope="0.00"/>
    </timestep>
    <timestep time="23460.00">
        <vehicle id="flow_0_in.0" x="884.06" y="266.44" angle="322.04" type="car" speed="13.81" pos="6.09" lane=":-83_0_0" slope="0.00"/>
        <vehicle id="flow_10_in.0" x="815.15" y="763.83" angle="314.31" type="car" speed="5.97" pos="13.39" lane=":-329_4_0" slope="0.00"/>
        <vehicle id="flow_15_in.0" x="336.31" y="1175.50" angle="159.91" type="car" speed="14.20" pos="18.11" lane="27669946#1_0" slope="0.00"/>
        <vehicle id="flow_5_in.0" x="378.16" y="1061.07" angle="159.91" type="car" speed="6.56" pos="139.95" lane="27669946#1_0" slope="0.00"/>
    </timestep>
    <timestep time="23520.00">
        <vehicle id="flow_0_in.0" x="407.47" y="579.26" angle="264.19" type="car" speed="13.47" pos="186.31" lane="-27669888#0_0" slope="0.00"/>
        <vehicle id="flow_0_in.1" x="1533.19" y="80.30" angle="278.58" type="car" speed="11.04" pos="16.73" lane="-856730052#2_0" slope="0.00"/>
        <vehicle id="flow_10_in.0" x="317.72" y="610.38" angle="175.45" type="car" speed="13.14" pos="2.72" lane="821487355#1_0" slope="0.00"/>
        <vehicle id="flow_10_in.1" x="1073.26" y="567.03" angle="225.07" type="car" speed="13.38" pos="143.26" lane="-702927361_0" slope="0.00"/>
        <vehicle id="flow_15_in.0" x="320.97" y="570.61" angle="172.07" type="car" speed="5.02" pos="42.69" lane="821487355#1_0" slope="0.00"/>
        <vehicle id="flow_5_in.0" x="327.20" y="563.47" angle="130.30" type="car" speed="0.68" pos="0.72" lane="school_internal_in_0" slope="0.00"/>
    </timestep>
    <timestep time="23580.00">
        <vehicle id="flow_0_in.0" x="344.41" y="543.02" angle="139.92" type="car" speed="0.00" pos="27.44" lane="school_internal_in_0" slope="0.00"/>
        <vehicle id="flow_0_in.1" x="971.41" y="162.59" angle="312.02" type="car" speed="10.55" pos="144.39" lane="-690833052#1_0" slope="0.00"/>
        <vehicle id="flow_10_in.0" x="349.24" y="537.28" angle="139.92" type="car" speed="0.00" pos="34.95" lane="school_internal_in_0" slope="0.00"/>
        <vehicle id="flow_10_in.1" x="664.85" y="531.23" angle="311.77" type="car" speed="13.83" pos="60.88" lane="-27669888#1_0" slope="0.00"/>
        <vehicle id="flow_10_in.2" x="1312.45" y="579.38" angle="217.29" type="car" speed="2.19" pos="2.19" lane=":-745_1_0" slope="0.00"/>
        <vehicle id="flow_15_in.0" x="354.07" y="531.53" angle="139.92" type="car" speed="0.00" pos="42.45" lane="school_internal_in_0" slope="0.00"/>
        <vehicle id="flow_15_in.1" x="436.85" y="1242.79" angle="256.90" type="car" speed="6.81" pos="16.31" lane=":303887664_1_0" slope="0.00"/>
        <vehicle id="flow_5_in.0" x="358.91" y="525.78" angle="139.92" type="car" speed="0.00" pos="49.97" lane="school_internal_in_0" slope="0.00"/>
        <vehicle id="flow_5_in.1" x="352.17" y="1246.68" angle="274.69" type="car" speed="11.71" pos="73.39" lane="-27669866#1_0" slope="0.00"/>
    </timestep>
    <timestep time="23640.00">
        <vehicle id="flow_0_in.0" x="356.37" y="528.81" angle="139.92" type="car" speed="1.24" pos="46.02" lane="school_internal_in_0" slope="0.00"/>
        <vehicle id="flow_0_in.1" x="679.91" y="515.44" angle="323.17" type="car" speed="10.74" pos="38.97" lane="-27669888#1_0" slope="0.00"/>
        <vehicle id="flow_0_in.2" x="1474.55" y="90.79" angle="285.55" type="car" speed="11.41" pos="5.04" lane=":-1119_0_0" slope="0.00"/>
        <vehicle id="flow_10_in.0" x="362.02" y="522.09" angle="139.92" type="car" speed="0.71" pos="54.80" lane="school_internal_in_0" slope="0.00"/>
        <vehicle id="flow_10_in.1" x="346.17" y="540.93" angle="139.92" type="car" speed="1.02" pos="30.18" lane="school_internal_in_0" slope="0.00"/>
        <vehicle id="flow_10_in.2" x="876.09" y="391.97" angle="233.22" type="car" speed="12.06" pos="73.39" lane="-27669908#4_0" slope="0.00"/>
        <vehicle id="flow_10_in.3" x="1313.77" y="581.12" angle="217.61" type="car" speed="0.00" pos="0.20" lane="-687674681_0" slope="0.00"/>
        <vehicle id="flow_15_in.0" x="368.46" y="514.43" angle="139.92" type="car" speed="0.95" pos="64.81" lane="school_internal_in_0" slope="0.00"/>
        <vehicle id="flow_15_in.1" x="298.27" y="818.81" angle="246.21" type="car" speed="16.07" pos="67.82" lane="-1031107370#0_0" slope="0.00"/>
        <vehicle id="flow_5_in.0" x="374.18" y="507.64" angle="139.92" type="car" speed="0.86" pos="73.68" lane="school_internal_in_0" slope="0.00"/>
        <vehicle id="flow_5_in.1" x="286.52" y="794.27" angle="157.67" type="car" speed="11.51" pos="10.22" lane="-1007585631_0" slope="0.00"/>
    </timestep>
    <timestep time="23700.00">
        <vehicle id="flow_0_in.0" x="393.44" y="484.75" angle="139.92" type="car" speed="0.85" pos="103.60" lane="school_internal_in_0" slope="0.00"/>
        <vehicle id="flow_0_in.1" x="336.41" y="552.53" angle="139.92" type="car" speed="0.87" pos="15.02" lane="school_internal_in_0" slope="0.00"/>
        <vehicle id="flow_0_in.2" x="922.78" y="217.28" angle="321.48" type="car" speed="11.36" pos="3.44" lane="-27669865#1_0" slope="0.00"/>
        <vehicle id="flow_10_in.0" x="398.84" y="478.32" angle="139.92" type="car" speed="0.87" pos="111.99" lane="school_internal_in_0" slope="0.00"/>
        <vehicle id="flow_10_in.1" x="358.92" y="525.77" angle="139.92" type="car" speed="0.00" pos="49.99" lane="school_internal_in_0" slope="0.00"/>
        <vehicle id="flow_10_in.2" x="366.15" y="575.06" angle="264.19" type="car" speed="12.69" pos="227.83" lane="-27669888#0_0" slope="0.00"/>
        <vehicle id="flow_10_in.3" x="1096.18" y="473.39" angle="316.32" type="car" speed="13.94" pos="7.25" lane=":-348_4_0" slope="0.00"/>
        <vehicle id="flow_15_in.0" x="405.05" y="470.94" angle="139.92" type="car" speed="1.11" pos="121.64" lane="school_internal_in_0" slope="0.00"/>
        <vehicle id="flow_15_in.1" x="341.96" y="545.93" angle="139.92" type="car" speed="0.76" pos="23.65" lane="school_internal_in_0" slope="0.00"/>
        <vehicle id="flow_15_in.2" x="482.24" y="1258.05" angle="249.45" type="car" speed="14.01" pos="44.93" lane="-27669866#2_0" slope="0.00"/>
        <vehicle id="flow_5_in.0" x="410.79" y="464.12" angle="139.92" type="car" speed="1.30" pos="130.55" lane="school_internal_in_0" slope="0.00"/>
        <vehicle id="flow_5_in.1" x="347.47" y="539.39" angle="139.92" type="car" speed="0.77" pos="32.19" lane="school_internal_in_0" slope="0.00"/>
        <vehicle id="flow_5_in.2" x="508.22" y="1267.79" angle="249.45" type="car" speed="10.22" pos="17.18" lane="-27669866#2_0" slope="0.00"/>
    </timestep>
    <timestep time="23760.00">
        <vehicle id="flow_0_in.0" x="431.30" y="439.74" angle="139.92" type="car" speed="1.04" pos="162.41" lane="school_internal_in_0" slope="0.00"/>
        <vehicle id="flow_0_in.1" x="349.26" y="537.25" angle="139.92" type="car" speed="0.00" pos="34.99" lane="school_internal_in_0" slope="0.00"/>
        <vehicle id="flow_0_in.2" x="605.92" y="562.17" angle="295.76" type="car" speed="7.21" pos="127.64" lane="-27669888#1_0" slope="0.00"/>
        <vehicle id="flow_0_in.3" x="1422.08" y="133.52" angle="316.17" type="car" speed="13.62" pos="5.77" lane=":-738_0_0" slope="0.00"/>
        <vehicle id="flow_10_in.0" x="437.48" y="432.39" angle="139.92" type="car" speed="0.60" pos="172.02" lane="school_internal_in_0" slope="0.00"/>
        <vehicle id="flow_10_in.1" x="397.12" y="480.37" angle="139.92" type="car" speed="1.17" pos="109.31" lane="school_internal_in_0" slope="0.00"/>
        <vehicle id="flow_10_in.2" x="344.43" y="543.00" angle="139.92" type="car" speed="0.00" pos="27.47" lane="school_internal_in_0" slope="0.00"/>
        <vehicle id="flow_10_in.3" x="524.20" y="670.73" angle="267.12" type="car" speed="14.48" pos="36.34" lane="-27669894#0_0" slope="0.00"/>
        <vehicle id="flow_10_in.4" x="1312.67" y="579.67" angle="217.31" type="car" speed="1.83" pos="1.83" lane=":-745_1_0" slope="0.00"/>
        <vehicle id="flow_15_in.0" x="443.32" y="425.46" angle="139.92" type="car" speed="0.98" pos="181.08" lane="school_internal_in_0" slope="0.00"/>
        <vehicle id="flow_15_in.1" x="354.09" y="531.51" angle="139.92" type="car" speed="0.00" pos="42.49" lane="school_internal_in_0" slope="0.00"/>
        <vehicle id="flow_15_in.2" x="413.42" y="846.83" angle="202.84" type="car" speed="7.21" pos="4.27" lane=":cluster_-254_-998_12_0" slope="0.00"/>
        <vehicle id="flow_5_in.0" x="449.37" y="418.27" angle="139.92" type="car" speed="0.81" pos="190.47" lane="school_internal_in_0" slope="0.00"/>
        <vehicle id="flow_5_in.1" x="358.93" y="525.76" angle="139.92" type="car" speed="0.00" pos="50.00" lane="school_internal_in_0" slope="0.00"/>
        <vehicle id="flow_5_in.2" x="409.35" y="892.26" angle="158.23" type="car" speed="13.40" pos="69.02" lane="27669889#1_0" slope="0.00"/>
    </timestep>
    <timestep time="23820.00">
        <vehicle id="flow_0_in.0" x="471.35" y="392.14" angle="139.92" type="car" speed="0.78" pos="224.62" lane="school_internal_in_0" slope="0.00"/>
        <vehicle id="flow_0_in.1" x="377.77" y="503.37" angle="139.92" type="car" speed="0.69" pos="79.26" lane="school_internal_in_0" slope="0.00"/>
        <vehicle id="flow_0_in.2" x="333.02" y="556.55" angle="139.92" type="car" speed="0.76" pos="9.76" lane="school_internal_in_0" slope="0.00"/>
        <vehicle id="flow_0_in.3" x="953.71" y="621.04" angle="315.43" type="car" speed="12.66" pos="3.82" lane="-687674678#13_0" slope="0.00"/>
        <vehicle id="flow_10_in.0" x="477.73" y="384.56" angle="139.92" type="car" speed="1.14" pos="234.52" lane="school_internal_in_0" slope="0.00"/>
        <vehicle id="flow_10_in.1" x="439.18" y="430.37" angle="139.92" type="car" speed="0.98" pos="174.66" lane="school_internal_in_0" slope="0.00"/>
        <vehicle id="flow_10_in.2" x="369.22" y="513.53" angle="139.92" type="car" speed="1.15" pos="65.98" lane="school_internal_in_0" slope="0.00"/>
        <vehicle id="flow_10_in.3" x="352.04" y="533.95" angle="139.92" type="car" speed="1.39" pos="39.30" lane="school_internal_in_0" slope="0.00"/>
        <vehicle id="flow_10_in.4" x="808.92" y="769.87" angle="314.86" type="car" speed="3.72" pos="7.91" lane="-687674678#10_0" slope="0.00"/>
        <vehicle id="flow_10_in.5" x="1142.12" y="636.85" angle="224.47" type="car" speed="12.68" pos="45.20" lane="-702927361_0" slope="0.00"/>
        <vehicle id="flow_15_in.0" x="484.40" y="376.63" angle="139.92" type="car" speed="1.45" pos="244.88" lane="school_internal_in_0" slope="0.00"/>
        <vehicle id="flow_15_in.1" x="385.99" y="493.59" angle="139.92" type="car" speed="1.02" pos="92.04" lane="school_internal_in_0" slope="0.00"/>
        <vehicle id="flow_15_in.2" x="345.04" y="542.27" angle="139.92" type="car" speed="1.40" pos="28.43" lane="school_internal_in_0" slope="0.00"/>
        <vehicle id="flow_15_in.3" x="473.56" y="1383.46" angle="160.43" type="car" speed="11.98" pos="1.30" lane=":-184_7_0" slope="0.00"/>
        <vehicle id="flow_5_in.0" x="492.39" y="379.09" angle="66.34" type="car" speed="1.09" pos="253.90" lane="school_internal_in_0" slope="0.00"/>
        <vehicle id="flow_5_in.1" x="391.70" y="486.81" angle="139.92" type="car" speed="1.12" pos="100.90" lane="school_internal_in_0" slope="0.00"/>
        <vehicle id="flow_5_in.2" x="339.05" y="549.39" angle="139.92" type="car" speed="0.43" pos="19.12" lane="school_internal_in_0" slope="0.00"/>
        <vehicle id="flow_5_in.3" x="682.04" y="1335.14" angle="247.89" type="car" speed="10.52" pos="11.54" lane="-27669866#5_0" slope="0.00"/>
    </timestep>
    <timestep time="23880.00">
        <vehicle id="flow_0_in.0" x="520.85" y="391.56" angle="66.34" type="car" speed="1.40" pos="284.98" lane="school_internal_in_0" slope="0.00"/>
        <vehicle id="flow_0_in.1" x="410.28" y="464.73" angle="139.92" type="car" speed="1.01" pos="129.76" lane="school_internal_in_0" slope="0.00"/>
        <vehicle id="flow_0_in.2" x="344.42" y="543.01" angle="139.92" type="car" speed="0.00" pos="27.46" lane="school_internal_in_0" slope="0.00"/>
        <vehicle id="flow_0_in.3" x="382.97" y="663.62" angle="267.12" type="car" speed="12.84" pos="177.75" lane="-27669894#0_0" slope="0.00"/>
        <vehicle id="flow_0_in.4" x="1391.37" y="122.08" angle="253.25" type="car" speed="11.96" pos="23.22" lane="-690833054#2_0" slope="0.00"/>
        <vehicle id="flow_10_in.0" x="528.96" y="395.11" angle="66.34" type="car" speed="1.13" pos="293.84" lane="school_internal_in_0" slope="0.00"/>
        <vehicle id="flow_10_in.1" x="483.12" y="378.15" angle="139.92" type="car" speed="1.24" pos="242.91" lane="school_internal_in_0" slope="0.00"/>
        <vehicle id="flow_10_in.2" x="404.71" y="471.35" angle="139.92" type="car" speed="0.50" pos="121.10" lane="school_internal_in_0" slope="0.00"/>
        <vehicle id="flow_10_in.3" x="363.46" y="520.38" angle="139.92" type="car" speed="1.00" pos="57.03" lane="school_internal_in_0" slope="0.00"/>
        <vehicle id="flow_10_in.4" x="330.85" y="559.13" angle="139.92" type="car" speed="0.83" pos="6.39" lane="school_internal_in_0" slope="0.00"/>
        <vehicle id="flow_10_in.5" x="728.82" y="492.13" angle="240.15" type="car" speed="12.86" pos="48.11" lane="-27669907#2_0" slope="0.00"/>
        <vehicle id="flow_10_in.6" x="1259.63" y="525.35" angle="224.05" type="car" speed="15.84" pos="6.82" lane="-25867240#2_0" slope="0.00"/>
        <vehicle id="flow_15_in.0" x="537.08" y="398.67" angle="66.34" type="car" speed="1.07" pos="302.70" lane="school_internal_in_0" slope="0.00"/>
        <vehicle id="flow_15_in.1" x="420.81" y="452.22" angle="139.92" type="car" speed="0.90" pos="146.11" lane="school_internal_in_0" slope="0.00"/>
        <vehicle id="flow_15_in.2" x="354.73" y="530.75" angle="139.92" type="car" speed="1.00" pos="43.48" lane="school_internal_in_0" slope="0.00"/>
        <vehicle id="flow_15_in.3" x="367.38" y="1045.40" angle="247.30" type="car" speed="6.76" pos="10.00" lane="-27669962#1_0" slope="0.00"/>
        <vehicle id="flow_5_in.0" x="545.55" y="402.38" angle="66.34" type="car" speed="1.12" pos="311.94" lane="school_internal_in_0" slope="0.00"/>
        <vehicle id="flow_5_in.1" x="426.23" y="445.77" angle="139.92" type="car" speed="0.92" pos="154.54" lane="school_internal_in_0" slope="0.00"/>
        <vehicle id="flow_5_in.2" x="349.25" y="537.27" angle="139.92" type="car" speed="0.00" pos="34.96" lane="school_internal_in_0" slope="0.00"/>
        <vehicle id="flow_5_in.3" x="375.04" y="1069.61" angle="159.91" type="car" speed="12.42" pos="130.87" lane="27669946#1_0" slope="0.00"/>
    </timestep>
    <timestep time="23940.00">
        <vehicle id="flow_0_in.0" x="579.67" y="421.75" angle="13.47" type="car" speed="5.41" pos="2.75" lane="27669895#0_0" slope="0.00"/>
        <vehicle id="flow_0_in.1" x="442.82" y="426.05" angle="139.92" type="car" speed="0.79" pos="180.30" lane="school_internal_in_0" slope="0.00"/>
        <vehicle id="flow_0_in.2" x="375.23" y="506.38" angle="139.92" type="car" speed="0.64" pos="75.33" lane="school_internal_in_0" slope="0.00"/>
        <vehicle id="flow_0_in.3" x="354.05" y="531.56" angle="139.92" type="car" speed="0.14" pos="42.42" lane="school_internal_in_0" slope="0.00"/>
        <vehicle id="flow_0_in.4" x="811.30" y="341.98" angle="237.67" type="car" speed="6.59" pos="2.53" lane="-27669908#2_0" slope="0.00"/>
        <vehicle id="flow_10_in.0" x="579.85" y="509.06" angle="9.55" type="car" speed="13.70" pos="90.39" lane="27669895#0_0" slope="0.00"/>
        <vehicle id="flow_10_in.1" x="540.67" y="400.24" angle="66.34" type="car" speed="1.43" pos="306.61" lane="school_internal_in_0" slope="0.00"/>
        <vehicle id="flow_10_in.2" x="437.27" y="432.64" angle="139.92" type="car" speed="0.64" pos="171.69" lane="school_internal_in_0" slope="0.00"/>
        <vehicle id="flow_10_in.3" x="408.44" y="466.91" angle="139.92" type="car" speed="1.17" pos="126.90" lane="school_internal_in_0" slope="0.00"/>
        <vehicle id="flow_10_in.4" x="358.91" y="525.79" angle="139.92" type="car" speed="0.00" pos="49.97" lane="school_internal_in_0" slope="0.00"/>
        <vehicle id="flow_10_in.5" x="336.01" y="553.01" angle="139.92" type="car" speed="1.23" pos="14.39" lane="school_internal_in_0" slope="0.00"/>
        <vehicle id="flow_10_in.6" x="738.36" y="725.78" angle="228.88" type="car" speed="16.06" pos="72.76" lane="-27669873#1_0" slope="0.00"/>
        <vehicle id="flow_15_in.0" x="656.31" y="533.92" angle="122.05" type="car" speed="14.71" pos="61.04" lane="27669888#1_0" slope="0.00"/>
        <vehicle id="flow_15_in.1" x="455.13" y="411.42" angle="139.92" type="car" speed="1.10" pos="199.43" lane="school_internal_in_0" slope="0.00"/>
        <vehicle id="flow_15_in.2" x="396.36" y="481.27" angle="139.92" type="car" speed="1.16" pos="108.14" lane="school_internal_in_0" slope="0.00"/>
        <vehicle id="flow_15_in.3" x="328.50" y="561.93" angle="136.65" type="car" speed="0.61" pos="2.73" lane="school_internal_in_0" slope="0.00"/>
        <vehicle id="flow_15_in.4" x="450.23" y="1508.58" angle="178.93" type="car" speed="13.64" pos="41.85" lane="687674678#1_0" slope="0.00"/>
        <vehicle id="flow_5_in.0" x="695.32" y="485.39" angle="149.20" type="car" speed="7.53" pos="123.89" lane="27669888#1_0" slope="0.00"/>
        <vehicle id="flow_5_in.1" x="460.50" y="405.03" angle="139.92" type="car" speed="0.76" pos="207.77" lane="school_internal_in_0" slope="0.00"/>
        <vehicle id="flow_5_in.2" x="390.17" y="488.63" angle="139.92" type="car" speed="1.09" pos="98.52" lane="school_internal_in_0" slope="0.00"/>
        <vehicle id="flow_5_in.3" x="322.35" y="567.91" angle="158.18" type="car" speed="1.62" pos="1.19" lane=":-229_3_0" slope="0.00"/>
    </timestep>
    <timestep time="24000.00">
        <vehicle id="flow_0_in.0" x="879.93" y="266.54" angle="142.19" type="car" speed="14.40" pos="92.70" lane="27669865#0_0" slope="0.00"/>
        <vehicle id="flow_0_in.1" x="475.39" y="387.34" angle="139.92" type="car" speed="1.10" pos="230.90" lane="school_internal_in_0" slope="0.00"/>
        <vehicle id="flow_0_in.2" x="410.59" y="464.36" angle="139.92" type="car" speed="1.11" pos="130.24" lane="school_internal_in_0" slope="0.00"/>
        <vehicle id="flow_0_in.3" x="363.43" y="520.42" angle="139.92" type="car" speed="0.76" pos="56.98" lane="school_internal_in_0" slope="0.00"/>
        <vehicle id="flow_0_in.4" x="380.17" y="576.48" angle="264.19" type="car" speed="12.28" pos="213.74" lane="-27669888#0_0" slope="0.00"/>
        <vehicle id="flow_0_in.5" x="1346.21" y="108.50" angle="253.45" type="car" speed="11.83" pos="3.38" lane=":-418_0_0" slope="0.00"/>
        <vehicle id="flow_10_in.0" x="976.80" y="470.64" angle="45.84" type="car" speed="12.83" pos="37.07" lane="27669908#5_0" slope="0.00"/>
        <vehicle id="flow_10_in.1" x="695.27" y="485.48" angle="149.20" type="car" speed="9.32" pos="123.79" lane="27669888#1_0" slope="0.00"/>
        <vehicle id="flow_10_in.2" x="469.54" y="394.29" angle="139.92" type="car" speed="0.89" pos="221.81" lane="school_internal_in_0" slope="0.00"/>
        <vehicle id="flow_10_in.3" x="451.90" y="415.26" angle="139.92" type="car" speed="0.98" pos="194.40" lane="school_internal_in_0" slope="0.00"/>
        <vehicle id="flow_10_in.4" x="383.77" y="496.23" angle="139.92" type="car" speed="1.34" pos="88.59" lane="school_internal_in_0" slope="0.00"/>
        <vehicle id="flow_10_in.5" x="349.24" y="537.28" angle="139.92" type="car" speed="0.00" pos="34.95" lane="school_internal_in_0" slope="0.00"/>
        <vehicle id="flow_10_in.6" x="334.71" y="554.55" angle="139.92" type="car" speed="0.00" pos="12.38" lane="school_internal_in_0" slope="0.00"/>
        <vehicle id="flow_10_in.7" x="952.98" y="621.78" angle="315.34" type="car" speed="13.53" pos="4.87" lane="-687674678#13_0" slope="0.00"/>
        <vehicle id="flow_15_in.0" x="746.33" y="850.47" angle="330.27" type="car" speed="14.69" pos="76.66" lane="-687674678#8_0" slope="0.00"/>
        <vehicle id="flow_15_in.1" x="493.54" y="379.60" angle="66.34" type="car" speed="0.62" pos="255.17" lane="school_internal_in_0" slope="0.00"/>
        <vehicle id="flow_15_in.2" x="439.48" y="430.03" angle="139.92" type="car" speed="0.98" pos="175.11" lane="school_internal_in_0" slope="0.00"/>
        <vehicle id="flow_15_in.3" x="344.39" y="543.04" angle="139.92" type="car" speed="0.00" pos="27.42" lane="school_internal_in_0" slope="0.00"/>
        <vehicle id="flow_15_in.4" x="376.55" y="1065.46" angle="159.91" type="car" speed="10.72" pos="135.28" lane="27669946#1_0" slope="0.00"/>
        <vehicle id="flow_5_in.0" x="733.17" y="876.95" angle="334.30" type="car" speed="12.69" pos="106.25" lane="-687674678#8_0" slope="0.00"/>
        <vehicle id="flow_5_in.1" x="501.75" y="383.19" angle="66.34" type="car" speed="1.16" pos="264.12" lane="school_internal_in_0" slope="0.00"/>
        <vehicle id="flow_5_in.2" x="433.05" y="437.66" angle="139.92" type="car" speed="1.06" pos="165.13" lane="school_internal_in_0" slope="0.00"/>
        <vehicle id="flow_5_in.3" x="339.55" y="548.80" angle="139.92" type="car" speed="0.00" pos="19.89" lane="school_internal_in_0" slope="0.00"/>
        <vehicle id="flow_5_in.4" x="332.93" y="1184.75" angle="159.91" type="car" speed="12.79" pos="8.26" lane="27669946#1_0" slope="0.00"/>
    </timestep>
    <timestep time="24060.00">
        <vehicle id="flow_0_in.0" x="1500.31" y="82.02" angle="99.40" type="car" speed="4.06" pos="22.17" lane="856730052#2_0" slope="0.00"/>
        <vehicle id="flow_0_in.1" x="520.62" y="391.46" angle="66.34" type="car" speed="0.96" pos="284.73" lane="school_internal_in_0" slope="0.00"/>
        <vehicle id="flow_0_in.2" x="446.61" y="421.54" angle="139.92" type="car" speed="1.02" pos="186.19" lane="school_internal_in_0" slope="0.00"/>
        <vehicle id="flow_0_in.3" x="404.96" y="471.05" angle="139.92" type="car" speed="1.31" pos="121.50" lane="school_internal_in_0" slope="0.00"/>
        <vehicle id="flow_0_in.4" x="335.88" y="553.16" angle="139.92" type="car" speed="0.92" pos="14.20" lane="school_internal_in_0" slope="0.00"/>
        <vehicle id="flow_0_in.5" x="809.92" y="340.96" angle="234.85" type="car" speed="6.33" pos="4.25" lane="-27669908#2_0" slope="0.00"/>
        <vehicle id="flow_10_in.1" x="1079.38" y="486.61" angle="137.11" type="car" speed="13.25" pos="55.44" lane="687674678#16_0" slope="0.00"/>
        <vehicle id="flow_10_in.2" x="511.99" y="387.67" angle="66.34" type="car" speed="1.10" pos="275.30" lane="school_internal_in_0" slope="0.00"/>
        <vehicle id="flow_10_in.3" x="500.28" y="382.55" angle="66.34" type="car" speed="0.77" pos="262.52" lane="school_internal_in_0" slope="0.00"/>
        <vehicle id="flow_10_in.4" x="429.60" y="441.76" angle="139.92" type="car" speed="1.08" pos="159.78" lane="school_internal_in_0" slope="0.00"/>
        <vehicle id="flow_10_in.5" x="379.24" y="501.63" angle="139.92" type="car" speed="0.88" pos="81.54" lane="school_internal_in_0" slope="0.00"/>
        <vehicle id="flow_10_in.6" x="348.18" y="538.54" angle="139.92" type="car" speed="0.91" pos="33.30" lane="school_internal_in_0" slope="0.00"/>
        <vehicle id="flow_10_in.7" x="410.22" y="665.00" angle="267.12" type="car" speed="13.22" pos="150.46" lane="-27669894#0_0" slope="0.00"/>
        <vehicle id="flow_10_in.8" x="1135.92" y="630.55" angle="224.57" type="car" speed="10.61" pos="54.03" lane="-702927361_0" slope="0.00"/>
        <vehicle id="flow_15_in.0" x="656.20" y="1449.11" angle="337.40" type="car" speed="16.44" pos="27.90" lane="-27669868#1_0" slope="0.00"/>
        <vehicle id="flow_15_in.1" x="544.50" y="401.92" angle="66.34" type="car" speed="0.60" pos="310.80" lane="school_internal_in_0" slope="0.00"/>
        <vehicle id="flow_15_in.2" x="480.68" y="381.05" angle="139.92" type="car" speed="0.97" pos="239.11" lane="school_internal_in_0" slope="0.00"/>
        <vehicle id="flow_15_in.3" x="371.79" y="510.48" angle="139.92" type="car" speed="0.86" pos="69.97" lane="school_internal_in_0" slope="0.00"/>
        <vehicle id="flow_15_in.4" x="329.98" y="560.17" angle="139.92" type="car" speed="0.76" pos="5.04" lane="school_internal_in_0" slope="0.00"/>
        <vehicle id="flow_15_in.5" x="425.28" y="1642.98" angle="159.00" type="car" speed="4.12" pos="0.20" lane="27669864_0" slope="0.00"/>
        <vehicle id="flow_5_in.1" x="552.42" y="405.39" angle="66.34" type="car" speed="0.93" pos="319.45" lane="school_internal_in_0" slope="0.00"/>
        <vehicle id="flow_5_in.2" x="473.81" y="389.22" angle="139.92" type="car" speed="1.12" pos="228.44" lane="school_internal_in_0" slope="0.00"/>
        <vehicle id="flow_5_in.3" x="366.37" y="516.92" angle="139.92" type="car" speed="0.86" pos="61.56" lane="school_internal_in_0" slope="0.00"/>
        <vehicle id="flow_5_in.4" x="318.24" y="603.27" angle="175.78" type="car" speed="13.33" pos="9.85" lane="821487355#1_0" slope="0.00"/>
    </timestep>
    <timestep time="24120.00">
        <vehicle id="flow_0_in.1" x="567.25" y="411.88" angle="66.34" type="car" speed="1.00" pos="335.63" lane="school_internal_in_0" slope="0.00"/>
        <vehicle id="flow_0_in.2" x="480.65" y="381.08" angle="139.92" type="car" speed="0.71" pos="239.07" lane="school_internal_in_0" slope="0.00"/>
        <vehicle id="flow_0_in.3" x="444.17" y="424.44" angle="139.92" type="car" speed="1.02" pos="182.41" lane="school_internal_in_0" slope="0.00"/>
        <vehicle id="flow_0_in.4" x="358.92" y="525.77" angle="139.92" type="car" speed="0.00" pos="49.98" lane="school_internal_in_0" slope="0.00"/>
        <vehicle id="flow_0_in.5" x="394.61" y="577.95" angle="264.19" type="car" speed="11.81" pos="199.22" lane="-27669888#0_0" slope="0.00"/>
        <vehicle id="flow_0_in.6" x="1324.47" y="235.74" angle="316.09" type="car" speed="9.44" pos="0.33" lane="-687674678#23_0" slope="0.00"/>
        <vehicle id="flow_10_in.1" x="1309.14" y="571.93" angle="48.92" type="car" speed="2.35" pos="1.35" lane=":-745_7_0" slope="0.00"/>
        <vehicle id="flow_10_in.2" x="559.45" y="408.47" angle="66.34" type="car" speed="1.06" pos="327.12" lane="school_internal_in_0" slope="0.00"/>
        <vehicle id="flow_10_in.3" x="551.40" y="404.94" angle="66.34" type="car" speed="0.51" pos="318.33" lane="school_internal_in_0" slope="0.00"/>
        <vehicle id="flow_10_in.4" x="474.80" y="388.04" angle="139.92" type="car" speed="0.88" pos="229.98" lane="school_internal_in_0" slope="0.00"/>
        <vehicle id="flow_10_in.5" x="416.56" y="457.26" angle="139.92" type="car" speed="1.19" pos="139.52" lane="school_internal_in_0" slope="0.00"/>
        <vehicle id="flow_10_in.6" x="395.63" y="482.14" angle="139.92" type="car" speed="1.11" pos="107.00" lane="school_internal_in_0" slope="0.00"/>
        <vehicle id="flow_10_in.7" x="344.37" y="543.07" angle="139.92" type="car" speed="0.00" pos="27.38" lane="school_internal_in_0" slope="0.00"/>
        <vehicle id="flow_10_in.8" x="781.69" y="513.90" angle="328.40" type="car" speed="5.91" pos="1.42" lane=":-292_1_0" slope="0.00"/>
        <vehicle id="flow_10_in.9" x="1312.69" y="579.70" angle="217.31" type="car" speed="1.78" pos="1.78" lane=":-745_1_0" slope="0.00"/>
        <vehicle id="flow_15_in.1" x="675.31" y="516.15" angle="142.14" type="car" speed="13.91" pos="87.16" lane="27669888#1_0" slope="0.00"/>
        <vehicle id="flow_15_in.2" x="537.92" y="399.03" angle="66.34" type="car" speed="1.38" pos="303.61" lane="school_internal_in_0" slope="0.00"/>
        <vehicle id="flow_15_in.3" x="406.39" y="469.35" angle="139.92" type="car" speed="0.74" pos="123.72" lane="school_internal_in_0" slope="0.00"/>
        <vehicle id="flow_15_in.4" x="354.06" y="531.54" angle="139.92" type="car" speed="0.00" pos="42.44" lane="school_internal_in_0" slope="0.00"/>