<?xml version="1.0" encoding="UTF-8"?>

<!-- generated on 2026-04-01T17:02:54.092345+02:00 by Eclipse SUMO sumo 1.26.0
<sumoConfiguration xmlns:xsi="http://www.w3.org/2001/XMLSchema-instance" xsi:noNamespaceSchemaLocation="http://sumo.dlr.de/xsd/sumoConfiguration.xsd">

    <input>
        <net-file value="C:\Users\neill\Github\tokai-sim\sim\sumo\bergvliet.net.xml"/>
        <route-files value="C:\Users\neill\Github\tokai-sim\sim\sumo\demand-H.rou.xml"/>
        <additional-files value="C:\Users\neill\Github\tokai-sim\sim\sumo\speed-humps.add.xml"/>
    </input>

    <output>
        <fcd-output value="C:\Users\neill\Github\tokai-sim\sim\sumo\fcd-H.xml"/>
        <tripinfo-output value="C:\Users\neill\Github\tokai-sim\sim\sumo\tripinfo-H.xml"/>
    </output>

    <time>
        <begin value="23400"/>
        <end value="30600"/>
        <step-length value="1"/>
    </time>

    <processing>
        <ignore-route-errors value="true"/>
    </processing>

    <routing>
        <routing-algorithm value="astar"/>
        <device.rerouting.probability value="1.0"/>
        <device.rerouting.period value="60"/>
        <device.rerouting.pre-period value="0"/>
    </routing>

    <report>
        <no-warnings value="true"/>
        <no-step-log value="true"/>
    </report>

    <fcd_device>
        <device.fcd.period value="60"/>
    </fcd_device>

</sumoConfiguration>
-->

<fcd-export xmlns:xsi="http://www.w3.org/2001/XMLSchema-instance" xsi:noNamespaceSchemaLocation="http://sumo.dlr.de/xsd/fcd_file.xsd">
    <timestep time="23400.00">
        <vehicle id="flow_0_in.0" x="1576.47" y="73.90" angle="278.01" type="car" speed="14.72" pos="5.10" lane="-690833056#0_0" slope="0.00"/>
        <vehicle id="flow_10_in.0" x="1313.77" y="581.12" angle="217.61" type="car" speed="14.03" pos="0.20" lane="-687674681_0" slope="0.00"/>
        <vehicle id="flow_15_in.0" x="425.28" y="1642.98" angle="159.00" type="car" speed="4.12" pos="0.20" lane="27669864_0" slope="0.00"/>
        <vehicle id="flow_5_in.0" x="711.02" y="1346.80" angle="261.83" type="car" speed="5.45" pos="0.20" lane="-687674693#1_0" slope="0.00"/>
    </timestep>
    <timestep time="23460.00">
        <vehicle id="flow_0_in.0" x="884.06" y="266.44" angle="322.04" type="car" speed="13.81" pos="6.09" lane=":-83_0_0" slope="0.00"/>
        <vehicle id="flow_10_in.0" x="815.15" y="763.83" angle="314.31" type="car" speed="5.97" pos="13.39" lane=":-329_4_0" slope="0.00"/>
        <vehicle id="flow_15_in.0" x="336.31" y="1175.50" angle="159.91" type="car" speed="14.20" pos="18.11" lane="27669946#1_0" slope="0.00"/>
        <vehicle id="flow_5_in.0" x="378.16" y="1061.07" angle="159.91" type="car" speed="6.56" pos="139.95" lane="27669946#1_0" slope="0.00"/>
    </timestep>
    <timestep time="23520.00">
        <vehicle id="flow_0_in.0" x="408.38" y="579.35" angle="264.24" type="car" speed="13.97" pos="185.39" lane="-27669888#0_0" slope="0.00"/>
        <vehicle id="flow_0_in.1" x="1296.89" y="94.26" angle="253.94" type="car" speed="11.43" pos="45.33" lane="-690833054#1_0" slope="0.00"/>
        <vehicle id="flow_10_in.0" x="317.72" y="610.38" angle="175.45" type="car" speed="13.14" pos="2.72" lane="821487355#1_0" slope="0.00"/>
        <vehicle id="flow_10_in.1" x="1072.96" y="566.73" angle="225.07" type="car" speed="13.38" pos="143.68" lane="-702927361_0" slope="0.00"/>
        <vehicle id="flow_15_in.0" x="320.97" y="570.63" angle="172.15" type="car" speed="5.04" pos="42.67" lane="821487355#1_0" slope="0.00"/>
        <vehicle id="flow_15_in.1" x="459.86" y="1430.35" angle="167.11" type="car" speed="13.45" pos="120.82" lane="687674678#1_0" slope="0.00"/>
        <vehicle id="flow_5_in.0" x="327.20" y="563.47" angle="130.30" type="car" speed="0.68" pos="0.72" lane="school_internal_in_0" slope="0.00"/>
        <vehicle id="flow_5_in.1" x="599.12" y="1302.49" angle="249.00" type="car" speed="11.77" pos="42.38" lane="-27669866#4_0" slope="0.00"/>
    </timestep>
    <timestep time="23580.00">
        <vehicle id="flow_0_in.0" x="344.41" y="543.02" angle="139.92" type="car" speed="0.00" pos="27.44" lane="school_internal_in_0" slope="0.00"/>
        <vehicle id="flow_0_in.1" x="805.34" y="337.58" angle="233.62" type="car" speed="7.55" pos="9.94" lane="-27669908#2_0" slope="0.00"/>
        <vehicle id="flow_0_in.2" x="1564.70" y="75.60" angle="278.40" type="car" speed="11.89" pos="6.23" lane=":cluster_-793_-794_5_0" slope="0.00"/>
        <vehicle id="flow_10_in.0" x="349.24" y="537.28" angle="139.92" type="car" speed="0.00" pos="34.95" lane="school_internal_in_0" slope="0.00"/>
        <vehicle id="flow_10_in.1" x="664.85" y="531.23" angle="311.77" type="car" speed="13.83" pos="60.88" lane="-27669888#1_0" slope="0.00"/>
        <vehicle id="flow_10_in.2" x="906.48" y="414.68" angle="233.22" type="car" speed="12.74" pos="35.45" lane="-27669908#4_0" slope="0.00"/>
        <vehicle id="flow_15_in.0" x="354.07" y="531.53" angle="139.92" type="car" speed="0.00" pos="42.45" lane="school_internal_in_0" slope="0.00"/>
        <vehicle id="flow_15_in.1" x="358.23" y="1041.58" angle="247.30" type="car" speed="6.31" pos="19.91" lane="-27669962#1_0" slope="0.00"/>
        <vehicle id="flow_5_in.0" x="358.91" y="525.78" angle="139.92" type="car" speed="0.00" pos="49.97" lane="school_internal_in_0" slope="0.00"/>
        <vehicle id="flow_5_in.1" x="361.27" y="1010.40" angle="157.56" type="car" speed="10.88" pos="21.17" lane="27669889#0_0" slope="0.00"/>
    </timestep>
    <timestep time="23640.00">
        <vehicle id="flow_0_in.0" x="356.97" y="528.09" angle="139.92" type="car" speed="1.31" pos="46.96" lane="school_internal_in_0" slope="0.00"/>
        <vehicle id="flow_0_in.1" x="474.75" y="585.73" angle="264.98" type="car" speed="11.38" pos="118.72" lane="-27669888#0_0" slope="0.00"/>
        <vehicle id="flow_0_in.2" x="982.71" y="152.41" angle="312.02" type="car" speed="10.95" pos="129.19" lane="-690833052#1_0" slope="0.00"/>
        <vehicle id="flow_10_in.0" x="362.46" y="521.57" angle="139.92" type="car" speed="0.80" pos="55.48" lane="school_internal_in_0" slope="0.00"/>
        <vehicle id="flow_10_in.1" x="346.09" y="541.02" angle="139.92" type="car" speed="1.20" pos="30.05" lane="school_internal_in_0" slope="0.00"/>
        <vehicle id="flow_10_in.2" x="409.48" y="579.47" angle="264.32" type="car" speed="12.44" pos="184.28" lane="-27669888#0_0" slope="0.00"/>
        <vehicle id="flow_10_in.3" x="818.40" y="760.66" angle="314.31" type="car" speed="8.47" pos="8.85" lane=":-329_4_0" slope="0.00"/>
        <vehicle id="flow_15_in.0" x="368.31" y="514.61" angle="139.92" type="car" speed="0.54" pos="64.57" lane="school_internal_in_0" slope="0.00"/>
        <vehicle id="flow_15_in.1" x="326.98" y="563.74" angle="129.50" type="car" speed="1.18" pos="0.37" lane="school_internal_in_0" slope="0.00"/>
        <vehicle id="flow_15_in.2" x="495.25" y="1262.92" angle="249.45" type="car" speed="11.70" pos="31.04" lane="-27669866#2_0" slope="0.00"/>
        <vehicle id="flow_5_in.0" x="373.88" y="507.99" angle="139.92" type="car" speed="0.69" pos="73.23" lane="school_internal_in_0" slope="0.00"/>
        <vehicle id="flow_5_in.1" x="332.51" y="557.16" angle="139.92" type="car" speed="0.76" pos="8.96" lane="school_internal_in_0" slope="0.00"/>
        <vehicle id="flow_5_in.2" x="453.37" y="1247.22" angle="249.45" type="car" speed="3.19" pos="75.76" lane="-27669866#2_0" slope="0.00"/>
    </timestep>
    <timestep time="23700.00">
        <vehicle id="flow_0_in.0" x="394.10" y="483.96" angle="139.92" type="car" speed="0.65" pos="104.63" lane="school_internal_in_0" slope="0.00"/>
        <vehicle id="flow_0_in.1" x="339.58" y="548.75" angle="139.92" type="car" speed="0.00" pos="19.95" lane="school_internal_in_0" slope="0.00"/>
        <vehicle id="flow_0_in.2" x="677.09" y="519.07" angle="322.16" type="car" speed="11.33" pos="43.58" lane="-27669888#1_0" slope="0.00"/>
        <vehicle id="flow_0_in.3" x="1210.71" y="80.32" angle="261.77" type="car" speed="13.56" pos="8.83" lane=":-403_0_0" slope="0.00"/>
        <vehicle id="flow_10_in.0" x="399.61" y="477.41" angle="139.92" type="car" speed="0.75" pos="113.19" lane="school_internal_in_0" slope="0.00"/>
        <vehicle id="flow_10_in.1" x="358.92" y="525.77" angle="139.92" type="car" speed="0.00" pos="49.99" lane="school_internal_in_0" slope="0.00"/>
        <vehicle id="flow_10_in.2" x="344.42" y="543.01" angle="139.92" type="car" speed="0.00" pos="27.46" lane="school_internal_in_0" slope="0.00"/>
        <vehicle id="flow_10_in.3" x="327.47" y="563.16" angle="131.23" type="car" speed="0.78" pos="1.13" lane="school_internal_in_0" slope="0.00"/>
        <vehicle id="flow_10_in.4" x="1090.18" y="479.70" angle="316.56" type="car" speed="15.59" pos="1.52" lane="-687674678#16_0" slope="0.00"/>
        <vehicle id="flow_15_in.0" x="405.05" y="470.94" angle="139.92" type="car" speed="0.91" pos="121.64" lane="school_internal_in_0" slope="0.00"/>
        <vehicle id="flow_15_in.1" x="349.25" y="537.26" angle="139.92" type="car" speed="0.00" pos="34.97" lane="school_internal_in_0" slope="0.00"/>
        <vehicle id="flow_15_in.2" x="413.32" y="865.84" angle="172.64" type="car" speed="13.68" pos="95.76" lane="27669889#1_0" slope="0.00"/>
        <vehicle id="flow_5_in.0" x="411.39" y="463.41" angle="139.92" type="car" speed="0.84" pos="131.49" lane="school_internal_in_0" slope="0.00"/>
        <vehicle id="flow_5_in.1" x="354.09" y="531.51" angle="139.92" type="car" speed="0.00" pos="42.48" lane="school_internal_in_0" slope="0.00"/>
        <vehicle id="flow_5_in.2" x="372.20" y="841.64" angle="265.96" type="car" speed="13.11" pos="29.30" lane="-1031107370#1_0" slope="0.00"/>
    </timestep>
    <timestep time="23760.00">
        <vehicle id="flow_0_in.0" x="433.35" y="437.31" angle="139.92" type="car" speed="1.34" pos="165.59" lane="school_internal_in_0" slope="0.00"/>
        <vehicle id="flow_0_in.1" x="357.31" y="527.69" angle="139.92" type="car" speed="0.66" pos="47.48" lane="school_internal_in_0" slope="0.00"/>
        <vehicle id="flow_0_in.2" x="325.64" y="570.54" angle="259.67" type="car" speed="0.35" pos="2.41" lane=":-229_1_0" slope="0.00"/>
        <vehicle id="flow_0_in.3" x="666.05" y="417.20" angle="321.92" type="car" speed="13.37" pos="52.44" lane="27669907#1_0" slope="0.00"/>
        <vehicle id="flow_0_in.4" x="1551.28" y="77.58" angle="278.40" type="car" speed="12.84" pos="19.79" lane=":cluster_-793_-794_5_0" slope="0.00"/>
        <vehicle id="flow_10_in.0" x="439.26" y="430.28" angle="139.92" type="car" speed="1.25" pos="174.77" lane="school_internal_in_0" slope="0.00"/>
        <vehicle id="flow_10_in.1" x="394.90" y="483.01" angle="139.92" type="car" speed="1.02" pos="105.87" lane="school_internal_in_0" slope="0.00"/>
        <vehicle id="flow_10_in.2" x="366.98" y="516.19" angle="139.92" type="car" speed="0.87" pos="62.50" lane="school_internal_in_0" slope="0.00"/>
        <vehicle id="flow_10_in.3" x="337.75" y="550.93" angle="139.92" type="car" speed="1.22" pos="17.11" lane="school_internal_in_0" slope="0.00"/>
        <vehicle id="flow_10_in.4" x="487.54" y="668.89" angle="267.12" type="car" speed="14.92" pos="73.04" lane="-27669894#0_0" slope="0.00"/>
        <vehicle id="flow_10_in.5" x="950.03" y="449.10" angle="225.84" type="car" speed="5.69" pos="113.28" lane="-27669908#5_0" slope="0.00"/>
        <vehicle id="flow_15_in.0" x="445.00" y="423.46" angle="139.92" type="car" speed="1.22" pos="183.69" lane="school_internal_in_0" slope="0.00"/>
        <vehicle id="flow_15_in.1" x="372.87" y="509.19" angle="139.92" type="car" speed="0.88" pos="71.66" lane="school_internal_in_0" slope="0.00"/>
        <vehicle id="flow_15_in.2" x="320.52" y="572.45" angle="175.78" type="car" speed="3.25" pos="40.76" lane="821487355#1_0" slope="0.00"/>
        <vehicle id="flow_15_in.3" x="415.85" y="1241.36" angle="275.25" type="car" speed="10.97" pos="9.50" lane="-27669866#1_0" slope="0.00"/>
        <vehicle id="flow_5_in.0" x="450.52" y="416.89" angle="139.92" type="car" speed="0.73" pos="192.27" lane="school_internal_in_0" slope="0.00"/>
        <vehicle id="flow_5_in.1" x="378.37" y="502.66" angle="139.92" type="car" speed="0.72" pos="80.19" lane="school_internal_in_0" slope="0.00"/>
        <vehicle id="flow_5_in.2" x="326.63" y="564.13" angle="128.81" type="car" speed="0.99" pos="6.96" lane=":-229_3_0" slope="0.00"/>
        <vehicle id="flow_5_in.3" x="452.78" y="1247.00" angle="249.45" type="car" speed="0.09" pos="76.39" lane="-27669866#2_0" slope="0.00"/>
    </timestep>
    <timestep time="23820.00">
        <vehicle id="flow_0_in.0" x="469.71" y="394.09" angle="139.92" type="car" speed="0.64" pos="222.07" lane="school_internal_in_0" slope="0.00"/>
        <vehicle id="flow_0_in.1" x="392.71" y="485.61" angle="139.92" type="car" speed="0.92" pos="102.47" lane="school_internal_in_0" slope="0.00"/>
        <vehicle id="flow_0_in.2" x="349.23" y="537.29" angle="139.92" type="car" speed="0.00" pos="34.94" lane="school_internal_in_0" slope="0.00"/>
        <vehicle id="flow_0_in.3" x="335.72" y="553.35" angle="139.92" type="car" speed="0.92" pos="13.94" lane="school_internal_in_0" slope="0.00"/>
        <vehicle id="flow_0_in.4" x="1072.89" y="498.30" angle="317.10" type="car" speed="12.84" pos="26.91" lane="-687674678#16_0" slope="0.00"/>
        <vehicle id="flow_10_in.0" x="475.56" y="387.13" angle="139.92" type="car" speed="1.33" pos="231.16" lane="school_internal_in_0" slope="0.00"/>
        <vehicle id="flow_10_in.1" x="437.12" y="432.82" angle="139.92" type="car" speed="1.20" pos="171.45" lane="school_internal_in_0" slope="0.00"/>
        <vehicle id="flow_10_in.2" x="403.83" y="472.40" angle="139.92" type="car" speed="0.58" pos="119.74" lane="school_internal_in_0" slope="0.00"/>
        <vehicle id="flow_10_in.3" x="381.60" y="498.81" angle="139.92" type="car" speed="1.04" pos="85.22" lane="school_internal_in_0" slope="0.00"/>
        <vehicle id="flow_10_in.4" x="344.40" y="543.03" angle="139.92" type="car" speed="0.13" pos="27.43" lane="school_internal_in_0" slope="0.00"/>
        <vehicle id="flow_10_in.5" x="494.46" y="587.46" angle="264.98" type="car" speed="12.53" pos="98.93" lane="-27669888#0_0" slope="0.00"/>
        <vehicle id="flow_10_in.6" x="833.54" y="745.37" angle="315.94" type="car" speed="15.50" pos="52.24" lane="-687674678#11_0" slope="0.00"/>
        <vehicle id="flow_15_in.0" x="481.33" y="380.28" angle="139.92" type="car" speed="1.08" pos="240.12" lane="school_internal_in_0" slope="0.00"/>
        <vehicle id="flow_15_in.1" x="409.36" y="465.82" angle="139.92" type="car" speed="0.87" pos="128.33" lane="school_internal_in_0" slope="0.00"/>
        <vehicle id="flow_15_in.2" x="354.07" y="531.53" angle="139.92" type="car" speed="0.00" pos="42.46" lane="school_internal_in_0" slope="0.00"/>
        <vehicle id="flow_15_in.3" x="357.20" y="840.23" angle="263.72" type="car" speed="13.83" pos="4.75" lane="-1031107370#0_0" slope="0.00"/>
        <vehicle id="flow_15_in.4" x="450.02" y="1519.35" angle="178.93" type="car" speed="13.23" pos="31.08" lane="687674678#1_0" slope="0.00"/>
        <vehicle id="flow_5_in.0" x="487.69" y="377.03" angle="96.46" type="car" speed="0.90" pos="248.77" lane="school_internal_in_0" slope="0.00"/>
        <vehicle id="flow_5_in.1" x="414.77" y="459.39" angle="139.92" type="car" speed="0.88" pos="136.74" lane="school_internal_in_0" slope="0.00"/>
        <vehicle id="flow_5_in.2" x="358.92" y="525.77" angle="139.92" type="car" speed="0.00" pos="49.99" lane="school_internal_in_0" slope="0.00"/>
        <vehicle id="flow_5_in.3" x="390.64" y="842.94" angle="265.96" type="car" speed="8.67" pos="10.82" lane="-1031107370#1_0" slope="0.00"/>
    </timestep>
    <timestep time="23880.00">
        <vehicle id="flow_0_in.0" x="516.43" y="389.62" angle="66.34" type="car" speed="0.99" pos="280.15" lane="school_internal_in_0" slope="0.00"/>
        <vehicle id="flow_0_in.1" x="425.85" y="446.22" angle="139.92" type="car" speed="0.98" pos="153.95" lane="school_internal_in_0" slope="0.00"/>
        <vehicle id="flow_0_in.2" x="360.27" y="524.16" angle="139.92" type="car" speed="0.97" pos="52.09" lane="school_internal_in_0" slope="0.00"/>
        <vehicle id="flow_0_in.3" x="345.08" y="542.22" angle="139.92" type="car" speed="1.29" pos="28.49" lane="school_internal_in_0" slope="0.00"/>
        <vehicle id="flow_0_in.4" x="609.19" y="679.78" angle="262.81" type="car" speed="12.48" pos="65.25" lane="-27669894#2_0" slope="0.00"/>
        <vehicle id="flow_0_in.5" x="1230.81" y="83.25" angle="261.66" type="car" speed="12.32" pos="112.40" lane="-690833054#1_0" slope="0.00"/>
        <vehicle id="flow_10_in.0" x="524.37" y="393.10" angle="66.34" type="car" speed="0.86" pos="288.82" lane="school_internal_in_0" slope="0.00"/>
        <vehicle id="flow_10_in.1" x="478.45" y="383.70" angle="139.92" type="car" speed="1.17" pos="235.65" lane="school_internal_in_0" slope="0.00"/>
        <vehicle id="flow_10_in.2" x="438.26" y="431.47" angle="139.92" type="car" speed="1.26" pos="173.22" lane="school_internal_in_0" slope="0.00"/>
        <vehicle id="flow_10_in.3" x="420.05" y="453.11" angle="139.92" type="car" speed="0.86" pos="144.94" lane="school_internal_in_0" slope="0.00"/>
        <vehicle id="flow_10_in.4" x="354.62" y="530.88" angle="139.92" type="car" speed="0.87" pos="43.31" lane="school_internal_in_0" slope="0.00"/>
        <vehicle id="flow_10_in.5" x="334.72" y="554.53" angle="139.92" type="car" speed="0.00" pos="12.40" lane="school_internal_in_0" slope="0.00"/>
        <vehicle id="flow_10_in.6" x="319.62" y="584.64" angle="175.78" type="car" speed="0.00" pos="28.54" lane="821487355#1_0" slope="0.00"/>
        <vehicle id="flow_10_in.7" x="1115.95" y="453.14" angle="315.47" type="car" speed="13.51" pos="42.76" lane="-687674678#17_0" slope="0.00"/>
        <vehicle id="flow_15_in.0" x="532.75" y="396.77" angle="66.34" type="car" speed="0.73" pos="297.96" lane="school_internal_in_0" slope="0.00"/>
        <vehicle id="flow_15_in.1" x="443.64" y="425.08" angle="139.92" type="car" speed="0.59" pos="181.57" lane="school_internal_in_0" slope="0.00"/>
        <vehicle id="flow_15_in.2" x="369.91" y="512.71" angle="139.92" type="car" speed="0.76" pos="67.05" lane="school_internal_in_0" slope="0.00"/>
        <vehicle id="flow_15_in.3" x="321.32" y="569.83" angle="168.69" type="car" speed="0.00" pos="43.54" lane="821487355#1_0" slope="0.00"/>
        <vehicle id="flow_15_in.4" x="373.60" y="1073.54" angle="159.91" type="car" speed="13.77" pos="126.68" lane="27669946#1_0" slope="0.00"/>
        <vehicle id="flow_5_in.0" x="540.58" y="400.20" angle="66.34" type="car" speed="0.87" pos="306.52" lane="school_internal_in_0" slope="0.00"/>
        <vehicle id="flow_5_in.1" x="449.40" y="418.23" angle="139.92" type="car" speed="1.17" pos="190.52" lane="school_internal_in_0" slope="0.00"/>
        <vehicle id="flow_5_in.2" x="377.60" y="503.56" angle="139.92" type="car" speed="1.24" pos="79.01" lane="school_internal_in_0" slope="0.00"/>
        <vehicle id="flow_5_in.3" x="320.17" y="577.16" angle="175.78" type="car" speed="0.00" pos="36.04" lane="821487355#1_0" slope="0.00"/>
        <vehicle id="flow_5_in.4" x="343.25" y="1156.54" angle="159.91" type="car" speed="14.02" pos="38.30" lane="27669946#1_0" slope="0.00"/>
    </timestep>
    <timestep time="23940.00">
        <vehicle id="flow_0_in.0" x="570.37" y="413.25" angle="66.34" type="car" speed="1.18" pos="339.04" lane="school_internal_in_0" slope="0.00"/>
        <vehicle id="flow_0_in.1" x="459.30" y="406.47" angle="139.92" type="car" speed="0.81" pos="205.90" lane="school_internal_in_0" slope="0.00"/>
        <vehicle id="flow_0_in.2" x="393.93" y="484.15" angle="139.92" type="car" speed="0.65" pos="104.37" lane="school_internal_in_0" slope="0.00"/>
        <vehicle id="flow_0_in.3" x="382.79" y="497.40" angle="139.92" type="car" speed="0.98" pos="87.06" lane="school_internal_in_0" slope="0.00"/>
        <vehicle id="flow_0_in.4" x="333.16" y="556.39" angle="139.92" type="car" speed="0.75" pos="9.97" lane="school_internal_in_0" slope="0.00"/>
        <vehicle id="flow_0_in.5" x="726.93" y="335.69" angle="325.11" type="car" speed="12.05" pos="40.87" lane="27669907#0_0" slope="0.00"/>
        <vehicle id="flow_0_in.6" x="1527.98" y="81.09" angle="278.58" type="car" speed="12.29" pos="22.00" lane="-856730052#2_0" slope="0.00"/>
        <vehicle id="flow_10_in.0" x="578.77" y="432.93" angle="355.41" type="car" speed="7.75" pos="13.97" lane="27669895#0_0" slope="0.00"/>
        <vehicle id="flow_10_in.1" x="535.19" y="397.84" angle="66.34" type="car" speed="0.92" pos="300.64" lane="school_internal_in_0" slope="0.00"/>
        <vehicle id="flow_10_in.2" x="473.69" y="389.36" angle="139.92" type="car" speed="1.12" pos="228.25" lane="school_internal_in_0" slope="0.00"/>
        <vehicle id="flow_10_in.3" x="453.68" y="413.15" angle="139.92" type="car" speed="0.60" pos="197.17" lane="school_internal_in_0" slope="0.00"/>
        <vehicle id="flow_10_in.4" x="388.49" y="490.63" angle="139.92" type="car" speed="1.13" pos="95.91" lane="school_internal_in_0" slope="0.00"/>
        <vehicle id="flow_10_in.5" x="363.52" y="520.30" angle="139.92" type="car" speed="0.96" pos="57.13" lane="school_internal_in_0" slope="0.00"/>
        <vehicle id="flow_10_in.6" x="339.09" y="549.35" angle="139.92" type="car" speed="1.31" pos="19.18" lane="school_internal_in_0" slope="0.00"/>
        <vehicle id="flow_10_in.7" x="642.96" y="683.35" angle="279.03" type="car" speed="10.78" pos="31.27" lane="-27669894#2_0" slope="0.00"/>
        <vehicle id="flow_10_in.8" x="1312.63" y="579.61" angle="217.30" type="car" speed="1.89" pos="1.89" lane=":-745_1_0" slope="0.00"/>
        <vehicle id="flow_15_in.0" x="590.71" y="548.99" angle="18.43" type="car" speed="11.57" pos="131.82" lane="27669895#0_0" slope="0.00"/>
        <vehicle id="flow_15_in.1" x="479.34" y="382.64" angle="139.92" type="car" speed="0.68" pos="237.03" lane="school_internal_in_0" slope="0.00"/>
        <vehicle id="flow_15_in.2" x="411.33" y="463.48" angle="139.92" type="car" speed="0.76" pos="131.38" lane="school_internal_in_0" slope="0.00"/>
        <vehicle id="flow_15_in.3" x="350.93" y="535.27" angle="139.92" type="car" speed="1.17" pos="37.57" lane="school_internal_in_0" slope="0.00"/>
        <vehicle id="flow_15_in.4" x="327.66" y="562.93" angle="131.99" type="car" speed="0.43" pos="1.43" lane="school_internal_in_0" slope="0.00"/>
        <vehicle id="flow_15_in.5" x="497.30" y="1333.12" angle="150.59" type="car" speed="11.36" pos="1.26" lane="687674678#4_0" slope="0.00"/>
        <vehicle id="flow_5_in.0" x="639.45" y="542.53" angle="115.21" type="car" speed="12.33" pos="42.09" lane="27669888#1_0" slope="0.00"/>
        <vehicle id="flow_5_in.1" x="484.92" y="376.01" angle="139.92" type="car" speed="1.03" pos="245.70" lane="school_internal_in_0" slope="0.00"/>
        <vehicle id="flow_5_in.2" x="420.62" y="452.44" angle="139.92" type="car" speed="0.81" pos="145.81" lane="school_internal_in_0" slope="0.00"/>
        <vehicle id="flow_5_in.3" x="344.80" y="542.56" angle="139.92" type="car" speed="1.23" pos="28.05" lane="school_internal_in_0" slope="0.00"/>
        <vehicle id="flow_5_in.4" x="319.94" y="580.34" angle="175.78" type="car" speed="11.26" pos="32.85" lane="821487355#1_0" slope="0.00"/>
        <vehicle id="flow_5_in.5" x="682.73" y="1335.42" angle="247.89" type="car" speed="10.86" pos="10.80" lane="-27669866#5_0" slope="0.00"/>
    </timestep>
    <timestep time="24000.00">
        <vehicle id="flow_0_in.0" x="830.38" y="330.40" angle="142.19" type="car" speed="7.96" pos="11.88" lane="27669865#0_0" slope="0.00"/>
        <vehicle id="flow_0_in.1" x="497.04" y="381.13" angle="66.34" type="car" speed="0.78" pos="258.99" lane="school_internal_in_0" slope="0.00"/>
        <vehicle id="flow_0_in.2" x="428.15" y="443.49" angle="139.92" type="car" speed="1.06" pos="157.52" lane="school_internal_in_0" slope="0.00"/>
        <vehicle id="flow_0_in.3" x="416.39" y="457.46" angle="139.92" type="car" speed="1.00" pos="139.26" lane="school_internal_in_0" slope="0.00"/>
        <vehicle id="flow_0_in.4" x="344.40" y="543.04" angle="139.92" type="car" speed="0.00" pos="27.42" lane="school_internal_in_0" slope="0.00"/>
        <vehicle id="flow_0_in.5" x="328.07" y="571.18" angle="264.19" type="car" speed="0.08" pos="266.11" lane="-27669888#0_0" slope="0.00"/>
        <vehicle id="flow_0_in.6" x="924.39" y="215.23" angle="321.06" type="car" speed="12.33" pos="0.83" lane="-27669865#1_0" slope="0.00"/>
        <vehicle id="flow_10_in.0" x="885.80" y="395.24" angle="53.22" type="car" speed="11.69" pos="26.57" lane="27669908#4_0" slope="0.00"/>
        <vehicle id="flow_10_in.1" x="656.13" y="534.06" angle="121.57" type="car" speed="13.50" pos="60.82" lane="27669888#1_0" slope="0.00"/>
        <vehicle id="flow_10_in.2" x="520.02" y="391.20" angle="66.34" type="car" speed="1.12" pos="284.08" lane="school_internal_in_0" slope="0.00"/>
        <vehicle id="flow_10_in.3" x="489.06" y="377.63" angle="73.69" type="car" speed="0.51" pos="250.27" lane="school_internal_in_0" slope="0.00"/>
        <vehicle id="flow_10_in.4" x="422.42" y="450.29" angle="139.92" type="car" speed="1.03" pos="148.62" lane="school_internal_in_0" slope="0.00"/>
        <vehicle id="flow_10_in.5" x="401.05" y="475.70" angle="139.92" type="car" speed="0.87" pos="115.42" lane="school_internal_in_0" slope="0.00"/>
        <vehicle id="flow_10_in.6" x="349.24" y="537.28" angle="139.92" type="car" speed="0.00" pos="34.94" lane="school_internal_in_0" slope="0.00"/>
        <vehicle id="flow_10_in.7" x="321.32" y="569.83" angle="168.69" type="car" speed="0.00" pos="43.54" lane="821487355#1_0" slope="0.00"/>
        <vehicle id="flow_10_in.8" x="938.72" y="438.94" angle="229.88" type="car" speed="8.04" pos="12.34" lane=":-141_1_0" slope="0.00"/>
        <vehicle id="flow_10_in.9" x="956.72" y="455.60" angle="225.84" type="car" speed="10.80" pos="103.96" lane="-27669908#5_0" slope="0.00"/>
        <vehicle id="flow_15_in.0" x="777.72" y="755.90" angle="48.88" type="car" speed="14.06" pos="70.92" lane="27669873#1_0" slope="0.00"/>
        <vehicle id="flow_15_in.1" x="528.45" y="394.89" angle="66.34" type="car" speed="1.13" pos="293.28" lane="school_internal_in_0" slope="0.00"/>
        <vehicle id="flow_15_in.2" x="454.19" y="412.54" angle="139.92" type="car" speed="0.85" pos="197.96" lane="school_internal_in_0" slope="0.00"/>
        <vehicle id="flow_15_in.3" x="359.98" y="524.51" angle="139.92" type="car" speed="1.02" pos="51.64" lane="school_internal_in_0" slope="0.00"/>
        <vehicle id="flow_15_in.4" x="339.56" y="548.78" angle="139.92" type="car" speed="0.00" pos="19.91" lane="school_internal_in_0" slope="0.00"/>
        <vehicle id="flow_15_in.5" x="352.44" y="1035.15" angle="206.77" type="car" speed="6.63" pos="4.96" lane=":-249_9_0" slope="0.00"/>
        <vehicle id="flow_5_in.0" x="764.20" y="822.85" angle="323.74" type="car" speed="12.43" pos="43.71" lane="-687674678#8_0" slope="0.00"/>
        <vehicle id="flow_5_in.1" x="536.13" y="398.25" angle="66.34" type="car" speed="0.88" pos="301.66" lane="school_internal_in_0" slope="0.00"/>
        <vehicle id="flow_5_in.2" x="461.78" y="403.51" angle="139.92" type="car" speed="1.22" pos="209.76" lane="school_internal_in_0" slope="0.00"/>
        <vehicle id="flow_5_in.3" x="354.07" y="531.53" angle="139.92" type="car" speed="0.00" pos="42.46" lane="school_internal_in_0" slope="0.00"/>
        <vehicle id="flow_5_in.4" x="334.69" y="554.57" angle="139.92" type="car" speed="0.00" pos="12.36" lane="school_internal_in_0" slope="0.00"/>
        <vehicle id="flow_5_in.5" x="375.45" y="1048.78" angle="235.03" type="car" speed="5.80" pos="1.24" lane="-27669962#1_0" slope="0.00"/>
    </timestep>
    <timestep time="24060.00">
        <vehicle id="flow_0_in.0" x="1478.36" y="86.41" angle="105.60" type="car" speed="8.61" pos="10.19" lane=":-1119_6_0" slope="0.00"/>
        <vehicle id="flow_0_in.1" x="543.90" y="401.65" angle="66.34" type="car" speed="0.95" pos="310.14" lane="school_internal_in_0" slope="0.00"/>
        <vehicle id="flow_0_in.2" x="461.29" y="404.10" angle="139.92" type="car" speed="0.73" pos="208.99" lane="school_internal_in_0" slope="0.00"/>
        <vehicle id="flow_0_in.3" x="450.29" y="417.17" angle="139.92" type="car" speed="1.30" pos="191.91" lane="school_internal_in_0" slope="0.00"/>
        <vehicle id="flow_0_in.4" x="377.52" y="503.66" angle="139.92" type="car" speed="0.66" pos="78.88" lane="school_internal_in_0" slope="0.00"/>
        <vehicle id="flow_0_in.5" x="348.23" y="538.48" angle="139.92" type="car" speed="1.08" pos="33.37" lane="school_internal_in_0" slope="0.00"/>
        <vehicle id="flow_0_in.6" x="588.46" y="569.97" angle="293.41" type="car" speed="9.69" pos="1.06" lane="-27669888#0_0" slope="0.00"/>
        <vehicle id="flow_0_in.7" x="1117.29" y="66.50" angle="261.31" type="car" speed="15.18" pos="35.37" lane="-856730048#0_0" slope="0.00"/>
        <vehicle id="flow_10_in.0" x="1328.46" y="593.87" angle="41.10" type="car" speed="9.04" pos="1.73" lane="689367618#1_0" slope="0.00"/>
        <vehicle id="flow_10_in.1" x="1042.68" y="526.13" angle="131.63" type="car" speed="5.29" pos="1.51" lane="687674678#16_0" slope="0.00"/>
        <vehicle id="flow_10_in.10" x="1108.45" y="602.68" angle="224.57" type="car" speed="11.77" pos="93.17" lane="-702927361_0" slope="0.00"/>
        <vehicle id="flow_10_in.2" x="572.58" y="414.22" angle="66.34" type="car" speed="1.12" pos="341.45" lane="school_internal_in_0" slope="0.00"/>
        <vehicle id="flow_10_in.3" x="535.79" y="398.10" angle="66.34" type="car" speed="0.43" pos="301.28" lane="school_internal_in_0" slope="0.00"/>