<?xml version="1.0" encoding="UTF-8"?>

<!-- generated on 2026-04-04T17:58:22.686751+02:00 by Eclipse SUMO sumo 1.26.0
<sumoConfiguration xmlns:xsi="http://www.w3.org/2001/XMLSchema-instance" xsi:noNamespaceSchemaLocation="http://sumo.dlr.de/xsd/sumoConfiguration.xsd">

    <input>
        <net-file value="C:\Users\neill\Github\tokai-sim\sim\sumo\bergvliet.net.xml"/>
        <route-files value="C:\Users\neill\Github\tokai-sim\sim\sumo\demand-M.rou.xml"/>
        <additional-files value="C:\Users\neill\Github\tokai-sim\sim\sumo\speed-humps.add.xml"/>
    </input>

    <output>
        <fcd-output value="C:\Users\neill\Github\tokai-sim\sim\sumo\fcd-M.xml"/>
        <tripinfo-output value="C:\Users\neill\Github\tokai-sim\sim\sumo\tripinfo-M.xml"/>
    </output>

    <time>
        <begin value="23400"/>
        <end value="32400"/>
        <step-length value="1"/>
    </time>

    <processing>
        <ignore-route-errors value="true"/>
    </processing>

    <routing>
        <routing-algorithm value="astar"/>
        <device.rerouting.probability value="1.0"/>
        <device.rerouting.period value="60"/>
        <device.rerouting.pre-period value="0"/>
    </routing>

    <report>
        <no-warnings value="true"/>
        <no-step-log value="true"/>
    </report>

    <fcd_device>
        <device.fcd.period value="30"/>
    </fcd_device>

</sumoConfiguration>
-->

<fcd-export xmlns:xsi="http://www.w3.org/2001/XMLSchema-instance" xsi:noNamespaceSchemaLocation="http://sumo.dlr.de/xsd/fcd_file.xsd">
    <timestep time="23400.00">
        <vehicle id="flow_0_in.0" x="1576.47" y="73.90" angle="278.01" type="car" speed="14.72" pos="5.10" lane="-690833056#0_0" slope="0.00"/>
        <vehicle id="flow_10_in.0" x="1313.77" y="581.12" angle="217.61" type="car" speed="14.03" pos="0.20" lane="-687674681_0" slope="0.00"/>
        <vehicle id="flow_15_in.0" x="425.28" y="1642.98" angle="159.00" type="car" speed="4.12" pos="0.20" lane="27669864_0" slope="0.00"/>
        <vehicle id="flow_5_in.0" x="711.02" y="1346.80" angle="261.83" type="car" speed="5.45" pos="0.20" lane="-687674693#1_0" slope="0.00"/>
    </timestep>
    <timestep time="23430.00">
        <vehicle id="flow_0_in.0" x="1210.58" y="80.31" angle="261.77" type="car" speed="14.72" pos="8.97" lane=":-403_0_0" slope="0.00"/>
        <vehicle id="flow_10_in.0" x="1086.44" y="483.73" angle="317.10" type="car" speed="13.16" pos="7.01" lane="-687674678#16_0" slope="0.00"/>
        <vehicle id="flow_15_in.0" x="521.40" y="1272.73" angle="246.37" type="car" speed="6.04" pos="3.11" lane="-27669866#2_0" slope="0.00"/>
        <vehicle id="flow_5_in.0" x="446.54" y="1245.12" angle="253.42" type="car" speed="3.91" pos="6.34" lane=":303887664_1_0" slope="0.00"/>
    </timestep>
    <timestep time="23460.00">
        <vehicle id="flow_0_in.0" x="884.06" y="266.44" angle="322.04" type="car" speed="13.81" pos="6.09" lane=":-83_0_0" slope="0.00"/>
        <vehicle id="flow_10_in.0" x="815.15" y="763.83" angle="314.31" type="car" speed="5.97" pos="13.39" lane=":-329_4_0" slope="0.00"/>
        <vehicle id="flow_15_in.0" x="336.31" y="1175.50" angle="159.91" type="car" speed="14.20" pos="18.11" lane="27669946#1_0" slope="0.00"/>
        <vehicle id="flow_5_in.0" x="378.16" y="1061.07" angle="159.91" type="car" speed="6.56" pos="139.95" lane="27669946#1_0" slope="0.00"/>
    </timestep>
    <timestep time="23490.00">
        <vehicle id="flow_0_in.0" x="675.67" y="457.60" angle="59.63" type="car" speed="14.42" pos="108.27" lane="27669907#1_0" slope="0.00"/>
        <vehicle id="flow_10_in.0" x="571.35" y="674.37" angle="262.12" type="car" speed="13.77" pos="3.47" lane=":-271_1_0" slope="0.00"/>
        <vehicle id="flow_15_in.0" x="413.96" y="860.91" angle="172.64" type="car" speed="11.33" pos="100.73" lane="27669889#1_0" slope="0.00"/>
        <vehicle id="flow_5_in.0" x="371.04" y="841.55" angle="265.96" type="car" speed="11.00" pos="30.46" lane="-1031107370#1_0" slope="0.00"/>
    </timestep>
    <timestep time="23520.00">
        <vehicle id="flow_0_in.0" x="408.05" y="579.32" angle="264.22" type="car" speed="13.53" pos="185.72" lane="-27669888#0_0" slope="0.00"/>
        <vehicle id="flow_10_in.0" x="317.72" y="610.38" angle="175.45" type="car" speed="13.14" pos="2.72" lane="821487355#1_0" slope="0.00"/>
        <vehicle id="flow_10_in.1" x="1082.39" y="576.22" angle="224.57" type="car" speed="13.19" pos="130.31" lane="-702927361_0" slope="0.00"/>
        <vehicle id="flow_15_in.0" x="320.96" y="570.65" angle="172.23" type="car" speed="5.06" pos="42.65" lane="821487355#1_0" slope="0.00"/>
        <vehicle id="flow_5_in.0" x="327.20" y="563.47" angle="130.30" type="car" speed="0.68" pos="0.72" lane="school_internal_in_0" slope="0.00"/>
    </timestep>
    <timestep time="23550.00">
        <vehicle id="flow_0_in.0" x="329.18" y="561.12" angle="141.33" type="car" speed="0.84" pos="3.79" lane="school_internal_in_0" slope="0.00"/>
        <vehicle id="flow_10_in.0" x="335.02" y="554.18" angle="139.92" type="car" speed="1.40" pos="12.86" lane="school_internal_in_0" slope="0.00"/>
        <vehicle id="flow_10_in.1" x="874.36" y="390.67" angle="233.22" type="car" speed="13.11" pos="75.55" lane="-27669908#4_0" slope="0.00"/>
        <vehicle id="flow_15_in.0" x="340.32" y="547.88" angle="139.92" type="car" speed="0.68" pos="21.09" lane="school_internal_in_0" slope="0.00"/>
        <vehicle id="flow_5_in.0" x="345.88" y="541.27" angle="139.92" type="car" speed="0.73" pos="29.73" lane="school_internal_in_0" slope="0.00"/>
    </timestep>
    <timestep time="23580.00">
        <vehicle id="flow_0_in.0" x="344.41" y="543.02" angle="139.92" type="car" speed="0.00" pos="27.44" lane="school_internal_in_0" slope="0.00"/>
        <vehicle id="flow_0_in.1" x="1489.99" y="87.07" angle="280.27" type="car" speed="10.48" pos="60.46" lane="-856730052#2_0" slope="0.00"/>
        <vehicle id="flow_10_in.0" x="349.24" y="537.28" angle="139.92" type="car" speed="0.00" pos="34.95" lane="school_internal_in_0" slope="0.00"/>
        <vehicle id="flow_10_in.1" x="675.35" y="521.31" angle="322.16" type="car" speed="14.09" pos="46.41" lane="-27669888#1_0" slope="0.00"/>
        <vehicle id="flow_15_in.0" x="354.07" y="531.53" angle="139.92" type="car" speed="0.00" pos="42.45" lane="school_internal_in_0" slope="0.00"/>
        <vehicle id="flow_5_in.0" x="358.91" y="525.78" angle="139.92" type="car" speed="0.00" pos="49.97" lane="school_internal_in_0" slope="0.00"/>
        <vehicle id="flow_5_in.1" x="632.02" y="1315.12" angle="249.00" type="car" speed="13.37" pos="7.13" lane="-27669866#4_0" slope="0.00"/>
    </timestep>
    <timestep time="23610.00">
        <vehicle id="flow_0_in.0" x="344.41" y="543.02" angle="139.92" type="car" speed="0.00" pos="27.44" lane="school_internal_in_0" slope="0.00"/>
        <vehicle id="flow_0_in.1" x="1207.69" y="79.89" angle="261.77" type="car" speed="11.06" pos="11.88" lane=":-403_0_0" slope="0.00"/>
        <vehicle id="flow_10_in.0" x="349.24" y="537.28" angle="139.92" type="car" speed="0.00" pos="34.95" lane="school_internal_in_0" slope="0.00"/>
        <vehicle id="flow_10_in.1" x="324.57" y="569.38" angle="246.54" type="car" speed="5.63" pos="1.37" lane=":-229_6_0" slope="0.00"/>
        <vehicle id="flow_10_in.2" x="1118.68" y="613.06" angle="224.57" type="car" speed="12.10" pos="78.60" lane="-702927361_0" slope="0.00"/>
        <vehicle id="flow_15_in.0" x="354.07" y="531.53" angle="139.92" type="car" speed="0.00" pos="42.45" lane="school_internal_in_0" slope="0.00"/>
        <vehicle id="flow_5_in.0" x="358.91" y="525.78" angle="139.92" type="car" speed="0.00" pos="49.97" lane="school_internal_in_0" slope="0.00"/>
        <vehicle id="flow_5_in.1" x="332.69" y="1248.28" angle="274.69" type="car" speed="6.87" pos="92.94" lane="-27669866#1_0" slope="0.00"/>
    </timestep>
    <timestep time="23640.00">
        <vehicle id="flow_0_in.0" x="356.37" y="528.81" angle="139.92" type="car" speed="1.24" pos="46.02" lane="school_internal_in_0" slope="0.00"/>
        <vehicle id="flow_0_in.1" x="942.41" y="193.34" angle="320.09" type="car" speed="11.38" pos="23.39" lane="-690833052#0_0" slope="0.00"/>
        <vehicle id="flow_10_in.0" x="362.02" y="522.09" angle="139.92" type="car" speed="0.71" pos="54.80" lane="school_internal_in_0" slope="0.00"/>
        <vehicle id="flow_10_in.1" x="346.47" y="540.57" angle="139.92" type="car" speed="1.02" pos="30.64" lane="school_internal_in_0" slope="0.00"/>
        <vehicle id="flow_10_in.2" x="916.67" y="422.30" angle="233.22" type="car" speed="11.76" pos="22.72" lane="-27669908#4_0" slope="0.00"/>
        <vehicle id="flow_15_in.0" x="368.46" y="514.43" angle="139.92" type="car" speed="0.95" pos="64.81" lane="school_internal_in_0" slope="0.00"/>
        <vehicle id="flow_5_in.0" x="374.18" y="507.64" angle="139.92" type="car" speed="0.86" pos="73.68" lane="school_internal_in_0" slope="0.00"/>
        <vehicle id="flow_5_in.1" x="384.40" y="953.96" angle="158.29" type="car" speed="13.23" pos="2.47" lane="27669889#1_0" slope="0.00"/>
    </timestep>
    <timestep time="23670.00">
        <vehicle id="flow_0_in.0" x="374.73" y="506.98" angle="139.92" type="car" speed="0.78" pos="74.55" lane="school_internal_in_0" slope="0.00"/>
        <vehicle id="flow_0_in.1" x="742.77" y="312.97" angle="324.72" type="car" speed="10.53" pos="13.18" lane="27669907#0_0" slope="0.00"/>
        <vehicle id="flow_10_in.0" x="380.48" y="500.15" angle="139.92" type="car" speed="0.87" pos="83.47" lane="school_internal_in_0" slope="0.00"/>
        <vehicle id="flow_10_in.1" x="358.91" y="525.79" angle="139.92" type="car" speed="0.00" pos="49.97" lane="school_internal_in_0" slope="0.00"/>
        <vehicle id="flow_10_in.2" x="718.97" y="486.48" angle="240.15" type="car" speed="12.07" pos="59.47" lane="-27669907#2_0" slope="0.00"/>
        <vehicle id="flow_15_in.0" x="386.46" y="493.04" angle="139.92" type="car" speed="1.38" pos="92.76" lane="school_internal_in_0" slope="0.00"/>
        <vehicle id="flow_5_in.0" x="392.33" y="486.06" angle="139.92" type="car" speed="0.92" pos="101.88" lane="school_internal_in_0" slope="0.00"/>
        <vehicle id="flow_5_in.1" x="312.79" y="662.86" angle="174.51" type="car" speed="14.23" pos="2.61" lane=":-272_6_0" slope="0.00"/>
    </timestep>
    <timestep time="23700.00">
        <vehicle id="flow_0_in.0" x="393.37" y="484.83" angle="139.92" type="car" speed="0.99" pos="103.50" lane="school_internal_in_0" slope="0.00"/>
        <vehicle id="flow_0_in.1" x="651.63" y="540.33" angle="298.85" type="car" speed="10.87" pos="76.98" lane="-27669888#1_0" slope="0.00"/>
        <vehicle id="flow_10_in.0" x="399.12" y="477.99" angle="139.92" type="car" speed="0.94" pos="112.43" lane="school_internal_in_0" slope="0.00"/>
        <vehicle id="flow_10_in.1" x="358.91" y="525.79" angle="139.92" type="car" speed="0.00" pos="49.97" lane="school_internal_in_0" slope="0.00"/>
        <vehicle id="flow_10_in.2" x="439.30" y="582.34" angle="264.54" type="car" speed="11.09" pos="154.32" lane="-27669888#0_0" slope="0.00"/>
        <vehicle id="flow_10_in.3" x="1122.88" y="617.32" angle="224.57" type="car" speed="12.71" pos="72.61" lane="-702927361_0" slope="0.00"/>
        <vehicle id="flow_15_in.0" x="405.07" y="470.92" angle="139.92" type="car" speed="1.00" pos="121.67" lane="school_internal_in_0" slope="0.00"/>
        <vehicle id="flow_5_in.0" x="410.60" y="464.34" angle="139.92" type="car" speed="0.69" pos="130.26" lane="school_internal_in_0" slope="0.00"/>
        <vehicle id="flow_5_in.1" x="340.32" y="547.88" angle="139.92" type="car" speed="0.89" pos="21.09" lane="school_internal_in_0" slope="0.00"/>
    </timestep>
    <timestep time="23730.00">
        <vehicle id="flow_0_in.0" x="412.57" y="462.01" angle="139.92" type="car" speed="1.22" pos="133.31" lane="school_internal_in_0" slope="0.00"/>
        <vehicle id="flow_0_in.1" x="340.95" y="572.49" angle="264.19" type="car" speed="10.46" pos="253.16" lane="-27669888#0_0" slope="0.00"/>
        <vehicle id="flow_10_in.0" x="418.37" y="455.11" angle="139.92" type="car" speed="1.36" pos="142.32" lane="school_internal_in_0" slope="0.00"/>
        <vehicle id="flow_10_in.1" x="376.99" y="504.30" angle="139.92" type="car" speed="1.39" pos="78.05" lane="school_internal_in_0" slope="0.00"/>
        <vehicle id="flow_10_in.2" x="335.91" y="553.12" angle="139.92" type="car" speed="1.07" pos="14.25" lane="school_internal_in_0" slope="0.00"/>
        <vehicle id="flow_10_in.3" x="921.27" y="425.74" angle="233.22" type="car" speed="11.37" pos="16.98" lane="-27669908#4_0" slope="0.00"/>
        <vehicle id="flow_15_in.0" x="423.83" y="448.62" angle="139.92" type="car" speed="0.76" pos="150.81" lane="school_internal_in_0" slope="0.00"/>
        <vehicle id="flow_5_in.0" x="429.73" y="441.61" angle="139.92" type="car" speed="0.92" pos="159.97" lane="school_internal_in_0" slope="0.00"/>
        <vehicle id="flow_5_in.1" x="358.93" y="525.76" angle="139.92" type="car" speed="0.00" pos="50.00" lane="school_internal_in_0" slope="0.00"/>
    </timestep>
    <timestep time="23760.00">
        <vehicle id="flow_0_in.0" x="431.42" y="439.60" angle="139.92" type="car" speed="0.48" pos="162.60" lane="school_internal_in_0" slope="0.00"/>
        <vehicle id="flow_0_in.1" x="340.77" y="547.34" angle="139.92" type="car" speed="0.95" pos="21.80" lane="school_internal_in_0" slope="0.00"/>
        <vehicle id="flow_0_in.2" x="1417.76" y="131.92" angle="273.33" type="car" speed="5.82" pos="5.47" lane=":-738_9_0" slope="0.00"/>
        <vehicle id="flow_10_in.0" x="437.20" y="432.73" angle="139.92" type="car" speed="1.02" pos="171.57" lane="school_internal_in_0" slope="0.00"/>
        <vehicle id="flow_10_in.1" x="398.79" y="478.39" angle="139.92" type="car" speed="1.04" pos="111.91" lane="school_internal_in_0" slope="0.00"/>
        <vehicle id="flow_10_in.2" x="352.73" y="533.13" angle="139.92" type="car" speed="1.18" pos="40.37" lane="school_internal_in_0" slope="0.00"/>
        <vehicle id="flow_10_in.3" x="711.30" y="482.08" angle="240.15" type="car" speed="9.67" pos="68.31" lane="-27669907#2_0" slope="0.00"/>
        <vehicle id="flow_15_in.0" x="442.56" y="426.36" angle="139.92" type="car" speed="0.82" pos="179.90" lane="school_internal_in_0" slope="0.00"/>
        <vehicle id="flow_5_in.0" x="448.55" y="419.24" angle="139.92" type="car" speed="1.01" pos="189.20" lane="school_internal_in_0" slope="0.00"/>
        <vehicle id="flow_5_in.1" x="358.93" y="525.76" angle="139.92" type="car" speed="0.00" pos="50.00" lane="school_internal_in_0" slope="0.00"/>
        <vehicle id="flow_5_in.2" x="533.41" y="1277.28" angle="249.20" type="car" speed="7.11" pos="4.70" lane=":303887562_1_0" slope="0.00"/>
    </timestep>
    <timestep time="23790.00">
        <vehicle id="flow_0_in.0" x="450.46" y="416.97" angle="139.92" type="car" speed="1.32" pos="192.18" lane="school_internal_in_0" slope="0.00"/>
        <vehicle id="flow_0_in.1" x="349.26" y="537.25" angle="139.92" type="car" speed="0.00" pos="34.98" lane="school_internal_in_0" slope="0.00"/>
        <vehicle id="flow_0_in.2" x="1100.54" y="63.93" angle="261.27" type="car" speed="10.61" pos="52.32" lane="-856730048#0_0" slope="0.00"/>
        <vehicle id="flow_10_in.0" x="456.27" y="410.07" angle="139.92" type="car" speed="1.27" pos="201.19" lane="school_internal_in_0" slope="0.00"/>
        <vehicle id="flow_10_in.1" x="418.98" y="454.39" angle="139.92" type="car" speed="1.25" pos="143.27" lane="school_internal_in_0" slope="0.00"/>
        <vehicle id="flow_10_in.2" x="354.10" y="531.51" angle="139.92" type="car" speed="0.00" pos="42.49" lane="school_internal_in_0" slope="0.00"/>
        <vehicle id="flow_10_in.3" x="441.10" y="582.51" angle="264.54" type="car" speed="11.88" pos="152.52" lane="-27669888#0_0" slope="0.00"/>
        <vehicle id="flow_10_in.4" x="1133.93" y="434.86" angle="315.47" type="car" speed="8.94" pos="17.11" lane="-687674678#17_0" slope="0.00"/>
        <vehicle id="flow_15_in.0" x="461.80" y="403.49" angle="139.92" type="car" speed="0.86" pos="209.79" lane="school_internal_in_0" slope="0.00"/>
        <vehicle id="flow_5_in.0" x="467.64" y="396.55" angle="139.92" type="car" speed="1.30" pos="218.86" lane="school_internal_in_0" slope="0.00"/>
        <vehicle id="flow_5_in.1" x="371.13" y="511.26" angle="139.92" type="car" speed="1.14" pos="68.95" lane="school_internal_in_0" slope="0.00"/>
        <vehicle id="flow_5_in.2" x="331.01" y="1190.00" angle="159.91" type="car" speed="14.67" pos="2.67" lane="27669946#1_0" slope="0.00"/>
    </timestep>
    <timestep time="23820.00">
        <vehicle id="flow_0_in.0" x="469.85" y="393.93" angle="139.92" type="car" speed="0.82" pos="222.29" lane="school_internal_in_0" slope="0.00"/>
        <vehicle id="flow_0_in.1" x="349.26" y="537.25" angle="139.92" type="car" speed="0.00" pos="34.98" lane="school_internal_in_0" slope="0.00"/>
        <vehicle id="flow_0_in.2" x="866.76" y="288.73" angle="322.19" type="car" speed="10.75" pos="26.81" lane="-27669865#0_0" slope="0.00"/>
        <vehicle id="flow_10_in.0" x="475.71" y="386.95" angle="139.92" type="car" speed="1.14" pos="231.40" lane="school_internal_in_0" slope="0.00"/>
        <vehicle id="flow_10_in.1" x="440.41" y="428.92" angle="139.92" type="car" speed="0.82" pos="176.55" lane="school_internal_in_0" slope="0.00"/>
        <vehicle id="flow_10_in.2" x="361.86" y="522.28" angle="139.92" type="car" speed="0.81" pos="54.55" lane="school_internal_in_0" slope="0.00"/>
        <vehicle id="flow_10_in.3" x="338.37" y="550.20" angle="139.92" type="car" speed="0.70" pos="18.06" lane="school_internal_in_0" slope="0.00"/>
        <vehicle id="flow_10_in.4" x="853.47" y="724.78" angle="315.94" type="car" speed="13.15" pos="23.58" lane="-687674678#11_0" slope="0.00"/>
        <vehicle id="flow_15_in.0" x="481.77" y="379.76" angle="139.92" type="car" speed="1.43" pos="240.80" lane="school_internal_in_0" slope="0.00"/>
        <vehicle id="flow_5_in.0" x="488.65" y="377.45" angle="79.87" type="car" speed="1.20" pos="249.82" lane="school_internal_in_0" slope="0.00"/>
        <vehicle id="flow_5_in.1" x="392.40" y="485.98" angle="139.92" type="car" speed="1.25" pos="101.98" lane="school_internal_in_0" slope="0.00"/>
        <vehicle id="flow_5_in.2" x="413.64" y="863.40" angle="172.64" type="car" speed="13.10" pos="98.22" lane="27669889#1_0" slope="0.00"/>
    </timestep>
    <timestep time="23850.00">
        <vehicle id="flow_0_in.0" x="491.05" y="378.50" angle="66.34" type="car" speed="0.98" pos="252.44" lane="school_internal_in_0" slope="0.00"/>
        <vehicle id="flow_0_in.1" x="366.26" y="517.05" angle="139.92" type="car" speed="0.72" pos="61.38" lane="school_internal_in_0" slope="0.00"/>
        <vehicle id="flow_0_in.2" x="663.41" y="420.57" angle="321.92" type="car" speed="11.34" pos="56.72" lane="27669907#1_0" slope="0.00"/>
        <vehicle id="flow_10_in.0" x="499.12" y="382.04" angle="66.34" type="car" speed="0.64" pos="261.26" lane="school_internal_in_0" slope="0.00"/>
        <vehicle id="flow_10_in.1" x="461.10" y="404.32" angle="139.92" type="car" speed="0.77" pos="208.71" lane="school_internal_in_0" slope="0.00"/>
        <vehicle id="flow_10_in.2" x="379.04" y="501.86" angle="139.92" type="car" speed="1.08" pos="81.23" lane="school_internal_in_0" slope="0.00"/>
        <vehicle id="flow_10_in.3" x="357.03" y="528.02" angle="139.92" type="car" speed="1.27" pos="47.05" lane="school_internal_in_0" slope="0.00"/>
        <vehicle id="flow_10_in.4" x="628.60" y="682.08" angle="263.39" type="car" speed="14.14" pos="45.70" lane="-27669894#2_0" slope="0.00"/>
        <vehicle id="flow_15_in.0" x="507.52" y="385.72" angle="66.34" type="car" speed="1.49" pos="270.43" lane="school_internal_in_0" slope="0.00"/>
        <vehicle id="flow_5_in.0" x="515.18" y="389.08" angle="66.34" type="car" speed="0.72" pos="278.79" lane="school_internal_in_0" slope="0.00"/>
        <vehicle id="flow_5_in.1" x="414.91" y="459.23" angle="139.92" type="car" speed="1.38" pos="136.95" lane="school_internal_in_0" slope="0.00"/>
        <vehicle id="flow_5_in.2" x="320.55" y="572.00" angle="175.78" type="car" speed="11.25" pos="41.21" lane="821487355#1_0" slope="0.00"/>
    </timestep>
    <timestep time="23880.00">
        <vehicle id="flow_0_in.0" x="516.79" y="389.78" angle="66.34" type="car" speed="1.31" pos="280.55" lane="school_internal_in_0" slope="0.00"/>
        <vehicle id="flow_0_in.1" x="382.30" y="497.98" angle="139.92" type="car" speed="0.75" pos="86.30" lane="school_internal_in_0" slope="0.00"/>
        <vehicle id="flow_0_in.2" x="526.27" y="590.11" angle="270.31" type="car" speed="11.83" pos="67.00" lane="-27669888#0_0" slope="0.00"/>
        <vehicle id="flow_10_in.0" x="527.33" y="394.39" angle="66.34" type="car" speed="1.16" pos="292.05" lane="school_internal_in_0" slope="0.00"/>
        <vehicle id="flow_10_in.1" x="481.43" y="380.16" angle="139.92" type="car" speed="1.08" pos="240.28" lane="school_internal_in_0" slope="0.00"/>
        <vehicle id="flow_10_in.2" x="397.02" y="480.49" angle="139.92" type="car" speed="0.93" pos="109.16" lane="school_internal_in_0" slope="0.00"/>
        <vehicle id="flow_10_in.3" x="358.93" y="525.76" angle="139.92" type="car" speed="0.00" pos="50.00" lane="school_internal_in_0" slope="0.00"/>
        <vehicle id="flow_10_in.4" x="318.65" y="597.74" angle="175.78" type="car" speed="14.23" pos="15.41" lane="821487355#1_0" slope="0.00"/>
        <vehicle id="flow_10_in.5" x="1137.60" y="431.13" angle="315.47" type="car" speed="8.22" pos="11.88" lane="-687674678#17_0" slope="0.00"/>
        <vehicle id="flow_15_in.0" x="535.63" y="398.03" angle="66.34" type="car" speed="1.43" pos="301.11" lane="school_internal_in_0" slope="0.00"/>
        <vehicle id="flow_5_in.0" x="543.41" y="401.44" angle="66.34" type="car" speed="0.79" pos="309.60" lane="school_internal_in_0" slope="0.00"/>
        <vehicle id="flow_5_in.1" x="436.07" y="434.07" angle="139.92" type="car" speed="0.92" pos="169.82" lane="school_internal_in_0" slope="0.00"/>
        <vehicle id="flow_5_in.2" x="347.66" y="539.15" angle="139.92" type="car" speed="1.11" pos="32.50" lane="school_internal_in_0" slope="0.00"/>
    </timestep>
    <timestep time="23910.00">
        <vehicle id="flow_0_in.0" x="545.85" y="402.51" angle="66.34" type="car" speed="0.41" pos="312.27" lane="school_internal_in_0" slope="0.00"/>
        <vehicle id="flow_0_in.1" x="398.00" y="479.33" angle="139.92" type="car" speed="0.65" pos="110.68" lane="school_internal_in_0" slope="0.00"/>
        <vehicle id="flow_0_in.2" x="331.74" y="558.08" angle="139.92" type="car" speed="0.81" pos="7.77" lane="school_internal_in_0" slope="0.00"/>
        <vehicle id="flow_10_in.0" x="553.90" y="406.04" angle="66.34" type="car" speed="0.97" pos="321.06" lane="school_internal_in_0" slope="0.00"/>
        <vehicle id="flow_10_in.1" x="508.58" y="386.18" angle="66.34" type="car" speed="0.77" pos="271.58" lane="school_internal_in_0" slope="0.00"/>
        <vehicle id="flow_10_in.2" x="414.13" y="460.15" angle="139.92" type="car" speed="0.96" pos="135.74" lane="school_internal_in_0" slope="0.00"/>
        <vehicle id="flow_10_in.3" x="365.50" y="517.95" angle="139.92" type="car" speed="1.00" pos="60.21" lane="school_internal_in_0" slope="0.00"/>
        <vehicle id="flow_10_in.4" x="344.53" y="542.88" angle="139.92" type="car" speed="1.29" pos="27.63" lane="school_internal_in_0" slope="0.00"/>
        <vehicle id="flow_10_in.5" x="852.48" y="725.81" angle="315.94" type="car" speed="13.27" pos="25.00" lane="-687674678#11_0" slope="0.00"/>
        <vehicle id="flow_15_in.0" x="561.99" y="409.58" angle="66.34" type="car" speed="1.02" pos="329.89" lane="school_internal_in_0" slope="0.00"/>
        <vehicle id="flow_5_in.0" x="569.82" y="413.01" angle="66.34" type="car" speed="0.81" pos="338.44" lane="school_internal_in_0" slope="0.00"/>
        <vehicle id="flow_5_in.1" x="457.15" y="409.02" angle="139.92" type="car" speed="1.03" pos="202.56" lane="school_internal_in_0" slope="0.00"/>
        <vehicle id="flow_5_in.2" x="354.10" y="531.50" angle="139.92" type="car" speed="0.00" pos="42.50" lane="school_internal_in_0" slope="0.00"/>
    </timestep>
    <timestep time="23940.00">
        <vehicle id="flow_0_in.0" x="572.51" y="414.19" angle="66.34" type="car" speed="1.00" pos="341.38" lane="school_internal_in_0" slope="0.00"/>
        <vehicle id="flow_0_in.1" x="414.91" y="459.23" angle="139.92" type="car" speed="1.15" pos="136.95" lane="school_internal_in_0" slope="0.00"/>
        <vehicle id="flow_0_in.2" x="344.43" y="542.99" angle="139.92" type="car" speed="0.00" pos="27.48" lane="school_internal_in_0" slope="0.00"/>
        <vehicle id="flow_0_in.3" x="1308.26" y="252.70" angle="316.29" type="car" speed="12.78" pos="23.78" lane="-687674678#23_0" slope="0.00"/>
        <vehicle id="flow_10_in.0" x="577.27" y="458.58" angle="356.84" type="car" speed="11.74" pos="39.66" lane="27669895#0_0" slope="0.00"/>
        <vehicle id="flow_10_in.1" x="537.12" y="398.68" angle="66.34" type="car" speed="0.86" pos="302.74" lane="school_internal_in_0" slope="0.00"/>
        <vehicle id="flow_10_in.2" x="431.65" y="439.33" angle="139.92" type="car" speed="0.91" pos="162.95" lane="school_internal_in_0" slope="0.00"/>
        <vehicle id="flow_10_in.3" x="384.11" y="495.83" angle="139.92" type="car" speed="0.84" pos="89.12" lane="school_internal_in_0" slope="0.00"/>
        <vehicle id="flow_10_in.4" x="349.27" y="537.25" angle="139.92" type="car" speed="0.00" pos="34.99" lane="school_internal_in_0" slope="0.00"/>
        <vehicle id="flow_10_in.5" x="623.70" y="681.52" angle="263.39" type="car" speed="13.65" pos="50.63" lane="-27669894#2_0" slope="0.00"/>
        <vehicle id="flow_15_in.0" x="604.25" y="559.43" angle="112.46" type="car" speed="6.78" pos="3.04" lane="27669888#1_0" slope="0.00"/>
        <vehicle id="flow_5_in.0" x="670.86" y="521.46" angle="132.44" type="car" speed="12.39" pos="80.21" lane="27669888#1_0" slope="0.00"/>
        <vehicle id="flow_5_in.1" x="477.76" y="384.52" angle="139.92" type="car" speed="1.28" pos="234.57" lane="school_internal_in_0" slope="0.00"/>
        <vehicle id="flow_5_in.2" x="358.37" y="526.42" angle="139.92" type="car" speed="1.07" pos="49.13" lane="school_internal_in_0" slope="0.00"/>
        <vehicle id="flow_5_in.3" x="458.99" y="1249.33" angle="249.45" type="car" speed="8.95" pos="69.75" lane="-27669866#2_0" slope="0.00"/>
    </timestep>
    <timestep time="23970.00">
        <vehicle id="flow_0_in.0" x="694.27" y="472.21" angle="232.68" type="car" speed="6.17" pos="2.04" lane="-27669907#1_0" slope="0.00"/>
        <vehicle id="flow_0_in.1" x="431.30" y="439.74" angle="139.92" type="car" speed="0.80" pos="162.41" lane="school_internal_in_0" slope="0.00"/>
        <vehicle id="flow_0_in.2" x="344.43" y="542.99" angle="139.92" type="car" speed="0.00" pos="27.48" lane="school_internal_in_0" slope="0.00"/>
        <vehicle id="flow_0_in.3" x="1074.17" y="496.93" angle="317.10" type="car" speed="14.36" pos="25.03" lane="-687674678#16_0" slope="0.00"/>
        <vehicle id="flow_10_in.0" x="770.50" y="512.36" angle="60.15" type="car" speed="5.87" pos="69.68" lane="27669907#2_0" slope="0.00"/>
        <vehicle id="flow_10_in.1" x="567.33" y="411.92" angle="66.34" type="car" speed="1.34" pos="335.73" lane="school_internal_in_0" slope="0.00"/>
        <vehicle id="flow_10_in.2" x="449.41" y="418.22" angle="139.92" type="car" speed="1.08" pos="190.54" lane="school_internal_in_0" slope="0.00"/>
        <vehicle id="flow_10_in.3" x="402.76" y="473.67" angle="139.92" type="car" speed="1.19" pos="118.08" lane="school_internal_in_0" slope="0.00"/>
        <vehicle id="flow_10_in.4" x="353.42" y="532.31" angle="139.92" type="car" speed="1.39" pos="41.44" lane="school_internal_in_0" slope="0.00"/>
        <vehicle id="flow_10_in.5" x="319.54" y="585.70" angle="175.78" type="car" speed="13.50" pos="27.48" lane="821487355#1_0" slope="0.00"/>
        <vehicle id="flow_10_in.6" x="1158.23" y="653.32" angle="224.33" type="car" speed="10.84" pos="22.16" lane="-702927361_0" slope="0.00"/>
        <vehicle id="flow_15_in.0" x="761.69" y="555.93" angle="334.83" type="car" speed="11.91" pos="33.89" lane="-27669894#3_0" slope="0.00"/>
        <vehicle id="flow_5_in.0" x="715.00" y="615.67" angle="317.64" type="car" speed="12.90" pos="110.15" lane="-27669894#3_0" slope="0.00"/>
        <vehicle id="flow_5_in.1" x="504.34" y="384.33" angle="66.34" type="car" speed="1.32" pos="266.96" lane="school_internal_in_0" slope="0.00"/>
        <vehicle id="flow_5_in.2" x="379.11" y="501.77" angle="139.92" type="car" speed="1.17" pos="81.35" lane="school_internal_in_0" slope="0.00"/>
        <vehicle id="flow_5_in.3" x="360.64" y="1108.99" angle="159.91" type="car" speed="13.39" pos="88.94" lane="27669946#1_0" slope="0.00"/>
    </timestep>
    <timestep time="24000.00">
        <vehicle id="flow_0_in.0" x="859.88" y="292.37" angle="142.19" type="car" speed="14.07" pos="60.00" lane="27669865#0_0" slope="0.00"/>
        <vehicle id="flow_0_in.1" x="447.87" y="420.04" angle="139.92" type="car" speed="1.01" pos="188.15" lane="school_internal_in_0" slope="0.00"/>
        <vehicle id="flow_0_in.2" x="358.05" y="526.80" angle="139.92" type="car" speed="0.93" pos="48.64" lane="school_internal_in_0" slope="0.00"/>
        <vehicle id="flow_0_in.3" x="799.13" y="776.33" angle="288.38" type="car" speed="6.44" pos="3.59" lane=":-168_9_0" slope="0.00"/>
        <vehicle id="flow_10_in.0" x="960.91" y="455.21" angle="45.84" type="car" speed="13.96" pos="14.92" lane="27669908#5_0" slope="0.00"/>
        <vehicle id="flow_10_in.1" x="674.18" y="517.61" angle="139.45" type="car" speed="13.29" pos="85.31" lane="27669888#1_0" slope="0.00"/>