<?xml version="1.0" encoding="UTF-8"?>

<!-- generated on 2026-04-04T17:58:19.215967+02:00 by Eclipse SUMO sumo 1.26.0
<sumoConfiguration xmlns:xsi="http://www.w3.org/2001/XMLSchema-instance" xsi:noNamespaceSchemaLocation="http://sumo.dlr.de/xsd/sumoConfiguration.xsd">

    <input>
        <net-file value="C:\Users\neill\Github\tokai-sim\sim\sumo\bergvliet.net.xml"/>
        <route-files value="C:\Users\neill\Github\tokai-sim\sim\sumo\demand-L.rou.xml"/>
        <additional-files value="C:\Users\neill\Github\tokai-sim\sim\sumo\speed-humps.add.xml"/>
    </input>

    <output>
        <fcd-output value="C:\Users\neill\Github\tokai-sim\sim\sumo\fcd-L.xml"/>
        <tripinfo-output value="C:\Users\neill\Github\tokai-sim\sim\sumo\tripinfo-L.xml"/>
    </output>

    <time>
        <begin value="23400"/>
        <end value="32400"/>
        <step-length value="1"/>
    </time>

    <processing>
        <ignore-route-errors value="true"/>
    </processing>

    <routing>
        <routing-algorithm value="astar"/>
        <device.rerouting.probability value="1.0"/>
        <device.rerouting.period value="60"/>
        <device.rerouting.pre-period value="0"/>
    </routing>

    <report>
        <no-warnings value="true"/>
        <no-step-log value="true"/>
    </report>

    <fcd_device>
        <device.fcd.period value="30"/>
    </fcd_device>

</sumoConfiguration>
-->

<fcd-export xmlns:xsi="http://www.w3.org/2001/XMLSchema-instance" xsi:noNamespaceSchemaLocation="http://sumo.dlr.de/xsd/fcd_file.xsd">
    <timestep time="23400.00">
        <vehicle id="flow_0_in.0" x="1576.47" y="73.90" angle="278.01" type="car" speed="14.72" pos="5.10" lane="-690833056#0_0" slope="0.00"/>
        <vehicle id="flow_10_in.0" x="1313.77" y="581.12" angle="217.61" type="car" speed="14.03" pos="0.20" lane="-687674681_0" slope="0.00"/>
        <vehicle id="flow_15_in.0" x="425.28" y="1642.98" angle="159.00" type="car" speed="4.12" pos="0.20" lane="27669864_0" slope="0.00"/>
        <vehicle id="flow_5_in.0" x="711.02" y="1346.80" angle="261.83" type="car" speed="5.45" pos="0.20" lane="-687674693#1_0" slope="0.00"/>
    </timestep>
    <timestep time="23430.00">
        <vehicle id="flow_0_in.0" x="1210.58" y="80.31" angle="261.77" type="car" speed="14.72" pos="8.97" lane=":-403_0_0" slope="0.00"/>
        <vehicle id="flow_10_in.0" x="1086.44" y="483.73" angle="317.10" type="car" speed="13.16" pos="7.01" lane="-687674678#16_0" slope="0.00"/>
        <vehicle id="flow_15_in.0" x="521.40" y="1272.73" angle="246.37" type="car" speed="6.04" pos="3.11" lane="-27669866#2_0" slope="0.00"/>
        <vehicle id="flow_5_in.0" x="446.54" y="1245.12" angle="253.42" type="car" speed="3.91" pos="6.34" lane=":303887664_1_0" slope="0.00"/>
    </timestep>
    <timestep time="23460.00">
        <vehicle id="flow_0_in.0" x="884.06" y="266.44" angle="322.04" type="car" speed="13.81" pos="6.09" lane=":-83_0_0" slope="0.00"/>
        <vehicle id="flow_10_in.0" x="815.15" y="763.83" angle="314.31" type="car" speed="5.97" pos="13.39" lane=":-329_4_0" slope="0.00"/>
        <vehicle id="flow_15_in.0" x="336.31" y="1175.50" angle="159.91" type="car" speed="14.20" pos="18.11" lane="27669946#1_0" slope="0.00"/>
        <vehicle id="flow_5_in.0" x="378.16" y="1061.07" angle="159.91" type="car" speed="6.56" pos="139.95" lane="27669946#1_0" slope="0.00"/>
    </timestep>
    <timestep time="23490.00">
        <vehicle id="flow_0_in.0" x="675.67" y="457.60" angle="59.63" type="car" speed="14.42" pos="108.27" lane="27669907#1_0" slope="0.00"/>
        <vehicle id="flow_10_in.0" x="571.35" y="674.37" angle="262.12" type="car" speed="13.77" pos="3.47" lane=":-271_1_0" slope="0.00"/>
        <vehicle id="flow_15_in.0" x="413.96" y="860.91" angle="172.64" type="car" speed="11.33" pos="100.73" lane="27669889#1_0" slope="0.00"/>
        <vehicle id="flow_5_in.0" x="371.04" y="841.55" angle="265.96" type="car" speed="11.00" pos="30.46" lane="-1031107370#1_0" slope="0.00"/>
    </timestep>
    <timestep time="23520.00">
        <vehicle id="flow_0_in.0" x="408.28" y="579.34" angle="264.24" type="car" speed="13.53" pos="185.49" lane="-27669888#0_0" slope="0.00"/>
        <vehicle id="flow_10_in.0" x="317.70" y="610.72" angle="175.41" type="car" speed="12.84" pos="2.39" lane="821487355#1_0" slope="0.00"/>
        <vehicle id="flow_10_in.1" x="1277.97" y="580.58" angle="314.48" type="car" speed="9.23" pos="19.11" lane="-27669905#2_0" slope="0.00"/>
        <vehicle id="flow_15_in.0" x="320.87" y="570.85" angle="173.11" type="car" speed="5.01" pos="42.43" lane="821487355#1_0" slope="0.00"/>
        <vehicle id="flow_5_in.0" x="327.20" y="563.47" angle="130.30" type="car" speed="0.68" pos="0.72" lane="school_internal_in_0" slope="0.00"/>
    </timestep>
    <timestep time="23550.00">
        <vehicle id="flow_0_in.0" x="329.18" y="561.12" angle="141.33" type="car" speed="0.84" pos="3.79" lane="school_internal_in_0" slope="0.00"/>
        <vehicle id="flow_10_in.0" x="335.02" y="554.18" angle="139.92" type="car" speed="1.40" pos="12.86" lane="school_internal_in_0" slope="0.00"/>
        <vehicle id="flow_10_in.1" x="1045.22" y="540.26" angle="228.21" type="car" speed="0.06" pos="182.04" lane="-702927361_0" slope="0.00"/>
        <vehicle id="flow_15_in.0" x="340.32" y="547.88" angle="139.92" type="car" speed="0.68" pos="21.09" lane="school_internal_in_0" slope="0.00"/>
        <vehicle id="flow_5_in.0" x="345.88" y="541.27" angle="139.92" type="car" speed="0.73" pos="29.73" lane="school_internal_in_0" slope="0.00"/>
    </timestep>
    <timestep time="23580.00">
        <vehicle id="flow_0_in.0" x="344.41" y="543.02" angle="139.92" type="car" speed="0.00" pos="27.44" lane="school_internal_in_0" slope="0.00"/>
        <vehicle id="flow_10_in.0" x="349.24" y="537.28" angle="139.92" type="car" speed="0.00" pos="34.95" lane="school_internal_in_0" slope="0.00"/>
        <vehicle id="flow_10_in.1" x="831.16" y="426.14" angle="330.70" type="car" speed="13.22" pos="48.91" lane="-27669894#4_0" slope="0.00"/>
        <vehicle id="flow_15_in.0" x="354.07" y="531.53" angle="139.92" type="car" speed="0.00" pos="42.45" lane="school_internal_in_0" slope="0.00"/>
        <vehicle id="flow_5_in.0" x="358.91" y="525.78" angle="139.92" type="car" speed="0.00" pos="49.97" lane="school_internal_in_0" slope="0.00"/>
    </timestep>
    <timestep time="23610.00">
        <vehicle id="flow_0_in.0" x="344.41" y="543.02" angle="139.92" type="car" speed="0.00" pos="27.44" lane="school_internal_in_0" slope="0.00"/>
        <vehicle id="flow_10_in.0" x="349.24" y="537.28" angle="139.92" type="car" speed="0.00" pos="34.95" lane="school_internal_in_0" slope="0.00"/>
        <vehicle id="flow_10_in.1" x="598.08" y="565.76" angle="293.81" type="car" speed="7.75" pos="5.27" lane=":-240_5_0" slope="0.00"/>
        <vehicle id="flow_15_in.0" x="354.07" y="531.53" angle="139.92" type="car" speed="0.00" pos="42.45" lane="school_internal_in_0" slope="0.00"/>
        <vehicle id="flow_5_in.0" x="358.91" y="525.78" angle="139.92" type="car" speed="0.00" pos="49.97" lane="school_internal_in_0" slope="0.00"/>
    </timestep>
    <timestep time="23640.00">
        <vehicle id="flow_0_in.0" x="357.25" y="527.76" angle="139.92" type="car" speed="0.96" pos="47.38" lane="school_internal_in_0" slope="0.00"/>
        <vehicle id="flow_0_in.1" x="1347.46" y="108.87" angle="253.37" type="car" speed="10.41" pos="2.08" lane=":-418_0_0" slope="0.00"/>
        <vehicle id="flow_10_in.0" x="362.80" y="521.17" angle="139.92" type="car" speed="0.94" pos="56.00" lane="school_internal_in_0" slope="0.00"/>
        <vehicle id="flow_10_in.1" x="331.11" y="558.83" angle="139.92" type="car" speed="0.87" pos="6.78" lane="school_internal_in_0" slope="0.00"/>
        <vehicle id="flow_10_in.2" x="1313.77" y="581.12" angle="217.61" type="car" speed="0.00" pos="0.20" lane="-687674681_0" slope="0.00"/>
        <vehicle id="flow_15_in.0" x="368.80" y="514.02" angle="139.92" type="car" speed="1.20" pos="65.34" lane="school_internal_in_0" slope="0.00"/>
        <vehicle id="flow_5_in.0" x="374.70" y="507.02" angle="139.92" type="car" speed="0.94" pos="74.49" lane="school_internal_in_0" slope="0.00"/>
        <vehicle id="flow_5_in.1" x="452.74" y="1246.99" angle="249.45" type="car" speed="2.42" pos="76.43" lane="-27669866#2_0" slope="0.00"/>
    </timestep>
    <timestep time="23670.00">
        <vehicle id="flow_0_in.0" x="375.79" y="505.72" angle="139.92" type="car" speed="0.96" pos="76.19" lane="school_internal_in_0" slope="0.00"/>
        <vehicle id="flow_0_in.1" x="1045.60" y="96.20" angle="311.46" type="car" speed="10.53" pos="44.84" lane="-690833052#1_0" slope="0.00"/>
        <vehicle id="flow_10_in.0" x="381.54" y="498.88" angle="139.92" type="car" speed="0.95" pos="85.13" lane="school_internal_in_0" slope="0.00"/>
        <vehicle id="flow_10_in.1" x="351.29" y="534.84" angle="139.92" type="car" speed="1.35" pos="38.13" lane="school_internal_in_0" slope="0.00"/>
        <vehicle id="flow_10_in.2" x="1312.38" y="579.29" angle="217.29" type="car" speed="2.30" pos="2.30" lane=":-745_1_0" slope="0.00"/>
        <vehicle id="flow_15_in.0" x="387.99" y="491.22" angle="139.92" type="car" speed="0.86" pos="95.14" lane="school_internal_in_0" slope="0.00"/>
        <vehicle id="flow_5_in.0" x="393.99" y="484.09" angle="139.92" type="car" speed="1.05" pos="104.46" lane="school_internal_in_0" slope="0.00"/>
        <vehicle id="flow_5_in.1" x="378.75" y="1059.45" angle="159.91" type="car" speed="6.45" pos="141.69" lane="27669946#1_0" slope="0.00"/>
    </timestep>
    <timestep time="23700.00">
        <vehicle id="flow_0_in.0" x="394.91" y="483.00" angle="139.92" type="car" speed="1.29" pos="105.88" lane="school_internal_in_0" slope="0.00"/>
        <vehicle id="flow_0_in.1" x="829.08" y="337.30" angle="322.19" type="car" speed="9.49" pos="88.28" lane="-27669865#0_0" slope="0.00"/>
        <vehicle id="flow_10_in.0" x="400.70" y="476.12" angle="139.92" type="car" speed="1.01" pos="114.88" lane="school_internal_in_0" slope="0.00"/>
        <vehicle id="flow_10_in.1" x="358.92" y="525.78" angle="139.92" type="car" speed="0.00" pos="49.98" lane="school_internal_in_0" slope="0.00"/>
        <vehicle id="flow_10_in.2" x="1103.07" y="597.22" angle="224.57" type="car" speed="11.48" pos="100.83" lane="-702927361_0" slope="0.00"/>
        <vehicle id="flow_15_in.0" x="406.51" y="469.21" angle="139.92" type="car" speed="0.99" pos="123.91" lane="school_internal_in_0" slope="0.00"/>
        <vehicle id="flow_5_in.0" x="412.72" y="461.83" angle="139.92" type="car" speed="1.30" pos="133.55" lane="school_internal_in_0" slope="0.00"/>
        <vehicle id="flow_5_in.1" x="315.06" y="826.21" angle="246.21" type="car" speed="15.89" pos="49.47" lane="-1031107370#0_0" slope="0.00"/>
    </timestep>
    <timestep time="23730.00">
        <vehicle id="flow_0_in.0" x="414.63" y="459.55" angle="139.92" type="car" speed="0.71" pos="136.52" lane="school_internal_in_0" slope="0.00"/>
        <vehicle id="flow_0_in.1" x="674.19" y="456.73" angle="59.63" type="car" speed="11.53" pos="106.56" lane="27669907#1_0" slope="0.00"/>
        <vehicle id="flow_10_in.0" x="420.43" y="452.66" angle="139.92" type="car" speed="0.85" pos="145.53" lane="school_internal_in_0" slope="0.00"/>
        <vehicle id="flow_10_in.1" x="361.27" y="522.98" angle="139.92" type="car" speed="1.04" pos="53.63" lane="school_internal_in_0" slope="0.00"/>
        <vehicle id="flow_10_in.2" x="897.29" y="407.82" angle="233.22" type="car" speed="12.18" pos="46.92" lane="-27669908#4_0" slope="0.00"/>
        <vehicle id="flow_15_in.0" x="426.30" y="445.68" angle="139.92" type="car" speed="1.00" pos="154.65" lane="school_internal_in_0" slope="0.00"/>
        <vehicle id="flow_5_in.0" x="432.03" y="438.87" angle="139.92" type="car" speed="1.10" pos="163.55" lane="school_internal_in_0" slope="0.00"/>
        <vehicle id="flow_5_in.1" x="332.43" y="557.25" angle="139.92" type="car" speed="1.09" pos="8.85" lane="school_internal_in_0" slope="0.00"/>
    </timestep>
    <timestep time="23760.00">
        <vehicle id="flow_0_in.0" x="433.47" y="437.17" angle="139.92" type="car" speed="0.59" pos="165.78" lane="school_internal_in_0" slope="0.00"/>
        <vehicle id="flow_0_in.1" x="481.06" y="586.28" angle="264.98" type="car" speed="11.09" pos="112.38" lane="-27669888#0_0" slope="0.00"/>
        <vehicle id="flow_10_in.0" x="438.91" y="430.70" angle="139.92" type="car" speed="0.72" pos="174.23" lane="school_internal_in_0" slope="0.00"/>
        <vehicle id="flow_10_in.1" x="382.72" y="497.48" angle="139.92" type="car" speed="1.14" pos="86.96" lane="school_internal_in_0" slope="0.00"/>
        <vehicle id="flow_10_in.2" x="704.90" y="479.57" angle="252.03" type="car" speed="5.68" pos="3.75" lane=":-248_0_0" slope="0.00"/>
        <vehicle id="flow_10_in.3" x="1312.40" y="579.31" angle="217.29" type="car" speed="2.27" pos="2.27" lane=":-745_1_0" slope="0.00"/>
        <vehicle id="flow_15_in.0" x="445.97" y="422.30" angle="139.92" type="car" speed="1.23" pos="185.20" lane="school_internal_in_0" slope="0.00"/>
        <vehicle id="flow_5_in.0" x="451.78" y="415.41" angle="139.92" type="car" speed="1.06" pos="194.22" lane="school_internal_in_0" slope="0.00"/>
        <vehicle id="flow_5_in.1" x="352.93" y="532.89" angle="139.92" type="car" speed="1.43" pos="40.68" lane="school_internal_in_0" slope="0.00"/>
    </timestep>
    <timestep time="23790.00">
        <vehicle id="flow_0_in.0" x="453.29" y="413.60" angle="139.92" type="car" speed="0.61" pos="196.57" lane="school_internal_in_0" slope="0.00"/>
        <vehicle id="flow_0_in.1" x="333.28" y="556.25" angle="139.92" type="car" speed="0.81" pos="10.15" lane="school_internal_in_0" slope="0.00"/>
        <vehicle id="flow_10_in.0" x="458.96" y="406.87" angle="139.92" type="car" speed="0.76" pos="205.37" lane="school_internal_in_0" slope="0.00"/>
        <vehicle id="flow_10_in.1" x="404.69" y="471.37" angle="139.92" type="car" speed="1.32" pos="121.08" lane="school_internal_in_0" slope="0.00"/>
        <vehicle id="flow_10_in.2" x="415.30" y="580.04" angle="264.54" type="car" speed="11.84" pos="178.44" lane="-27669888#0_0" slope="0.00"/>
        <vehicle id="flow_10_in.3" x="1097.90" y="591.97" angle="224.57" type="car" speed="11.82" pos="108.20" lane="-702927361_0" slope="0.00"/>
        <vehicle id="flow_15_in.0" x="464.84" y="399.88" angle="139.92" type="car" speed="0.62" pos="214.51" lane="school_internal_in_0" slope="0.00"/>
        <vehicle id="flow_5_in.0" x="470.49" y="393.16" angle="139.92" type="car" speed="0.80" pos="223.29" lane="school_internal_in_0" slope="0.00"/>
        <vehicle id="flow_5_in.1" x="358.93" y="525.76" angle="139.92" type="car" speed="0.00" pos="49.99" lane="school_internal_in_0" slope="0.00"/>
    </timestep>
    <timestep time="23820.00">
        <vehicle id="flow_0_in.0" x="473.01" y="390.17" angle="139.92" type="car" speed="0.98" pos="227.20" lane="school_internal_in_0" slope="0.00"/>
        <vehicle id="flow_0_in.1" x="350.37" y="535.93" angle="139.92" type="car" speed="1.12" pos="36.71" lane="school_internal_in_0" slope="0.00"/>
        <vehicle id="flow_10_in.0" x="478.53" y="383.61" angle="139.92" type="car" speed="0.99" pos="235.77" lane="school_internal_in_0" slope="0.00"/>
        <vehicle id="flow_10_in.1" x="426.31" y="445.67" angle="139.92" type="car" speed="1.24" pos="154.66" lane="school_internal_in_0" slope="0.00"/>
        <vehicle id="flow_10_in.2" x="338.12" y="550.49" angle="139.92" type="car" speed="1.00" pos="17.68" lane="school_internal_in_0" slope="0.00"/>
        <vehicle id="flow_10_in.3" x="891.31" y="403.34" angle="233.22" type="car" speed="12.41" pos="54.39" lane="-27669908#4_0" slope="0.00"/>
        <vehicle id="flow_15_in.0" x="484.11" y="376.98" angle="139.92" type="car" speed="0.81" pos="244.44" lane="school_internal_in_0" slope="0.00"/>
        <vehicle id="flow_5_in.0" x="491.37" y="378.64" angle="66.34" type="car" speed="0.66" pos="252.80" lane="school_internal_in_0" slope="0.00"/>
        <vehicle id="flow_5_in.1" x="363.38" y="520.47" angle="139.92" type="car" speed="1.20" pos="56.91" lane="school_internal_in_0" slope="0.00"/>
    </timestep>
    <timestep time="23850.00">
        <vehicle id="flow_0_in.0" x="493.85" y="379.73" angle="66.34" type="car" speed="0.68" pos="255.50" lane="school_internal_in_0" slope="0.00"/>
        <vehicle id="flow_0_in.1" x="358.92" y="525.77" angle="139.92" type="car" speed="0.00" pos="49.98" lane="school_internal_in_0" slope="0.00"/>
        <vehicle id="flow_0_in.2" x="1377.96" y="118.04" angle="253.25" type="car" speed="11.49" pos="37.23" lane="-690833054#2_0" slope="0.00"/>
        <vehicle id="flow_10_in.0" x="502.09" y="383.34" angle="66.34" type="car" speed="1.12" pos="264.50" lane="school_internal_in_0" slope="0.00"/>
        <vehicle id="flow_10_in.1" x="447.52" y="420.47" angle="139.92" type="car" speed="0.99" pos="187.60" lane="school_internal_in_0" slope="0.00"/>
        <vehicle id="flow_10_in.2" x="354.09" y="531.51" angle="139.92" type="car" speed="0.00" pos="42.48" lane="school_internal_in_0" slope="0.00"/>
        <vehicle id="flow_10_in.3" x="698.92" y="485.59" angle="326.95" type="car" speed="5.08" pos="3.57" lane="-27669888#1_0" slope="0.00"/>
        <vehicle id="flow_15_in.0" x="510.28" y="386.93" angle="66.34" type="car" speed="0.79" pos="273.44" lane="school_internal_in_0" slope="0.00"/>
        <vehicle id="flow_5_in.0" x="518.39" y="390.48" angle="66.34" type="car" speed="1.12" pos="282.29" lane="school_internal_in_0" slope="0.00"/>
        <vehicle id="flow_5_in.1" x="383.25" y="496.86" angle="139.92" type="car" speed="1.17" pos="87.77" lane="school_internal_in_0" slope="0.00"/>
        <vehicle id="flow_5_in.2" x="493.53" y="1262.28" angle="249.45" type="car" speed="12.83" pos="32.87" lane="-27669866#2_0" slope="0.00"/>
    </timestep>
    <timestep time="23880.00">
        <vehicle id="flow_0_in.0" x="521.87" y="392.00" angle="66.34" type="car" speed="1.25" pos="286.09" lane="school_internal_in_0" slope="0.00"/>
        <vehicle id="flow_0_in.1" x="358.92" y="525.77" angle="139.92" type="car" speed="0.00" pos="49.98" lane="school_internal_in_0" slope="0.00"/>
        <vehicle id="flow_0_in.2" x="1065.45" y="78.66" angle="311.46" type="car" speed="10.14" pos="18.35" lane="-690833052#1_0" slope="0.00"/>
        <vehicle id="flow_10_in.0" x="529.73" y="395.45" angle="66.34" type="car" speed="0.86" pos="294.68" lane="school_internal_in_0" slope="0.00"/>
        <vehicle id="flow_10_in.1" x="468.70" y="395.30" angle="139.92" type="car" speed="1.39" pos="220.50" lane="school_internal_in_0" slope="0.00"/>
        <vehicle id="flow_10_in.2" x="354.09" y="531.51" angle="139.92" type="car" speed="0.00" pos="42.48" lane="school_internal_in_0" slope="0.00"/>
        <vehicle id="flow_10_in.3" x="401.74" y="578.68" angle="264.19" type="car" speed="12.99" pos="192.06" lane="-27669888#0_0" slope="0.00"/>
        <vehicle id="flow_10_in.4" x="1135.22" y="433.55" angle="315.47" type="car" speed="8.26" pos="15.28" lane="-687674678#17_0" slope="0.00"/>
        <vehicle id="flow_15_in.0" x="537.94" y="399.04" angle="66.34" type="car" speed="1.30" pos="303.64" lane="school_internal_in_0" slope="0.00"/>
        <vehicle id="flow_5_in.0" x="545.61" y="402.40" angle="66.34" type="car" speed="0.81" pos="312.01" lane="school_internal_in_0" slope="0.00"/>
        <vehicle id="flow_5_in.1" x="404.52" y="471.58" angle="139.92" type="car" speed="0.88" pos="120.81" lane="school_internal_in_0" slope="0.00"/>
        <vehicle id="flow_5_in.2" x="346.30" y="1148.17" angle="159.91" type="car" speed="14.74" pos="47.21" lane="27669946#1_0" slope="0.00"/>
    </timestep>
    <timestep time="23910.00">
        <vehicle id="flow_0_in.0" x="548.47" y="403.66" angle="66.34" type="car" speed="0.75" pos="315.14" lane="school_internal_in_0" slope="0.00"/>
        <vehicle id="flow_0_in.1" x="375.06" y="506.59" angle="139.92" type="car" speed="0.65" pos="75.05" lane="school_internal_in_0" slope="0.00"/>
        <vehicle id="flow_0_in.2" x="836.45" y="327.80" angle="322.19" type="car" speed="11.15" pos="76.25" lane="-27669865#0_0" slope="0.00"/>
        <vehicle id="flow_10_in.0" x="556.32" y="407.09" angle="66.34" type="car" speed="0.71" pos="323.70" lane="school_internal_in_0" slope="0.00"/>
        <vehicle id="flow_10_in.1" x="492.10" y="378.96" angle="66.34" type="car" speed="0.89" pos="253.59" lane="school_internal_in_0" slope="0.00"/>
        <vehicle id="flow_10_in.2" x="364.85" y="518.72" angle="139.92" type="car" speed="0.94" pos="59.20" lane="school_internal_in_0" slope="0.00"/>
        <vehicle id="flow_10_in.3" x="338.47" y="550.07" angle="139.92" type="car" speed="0.81" pos="18.22" lane="school_internal_in_0" slope="0.00"/>
        <vehicle id="flow_10_in.4" x="856.30" y="721.86" angle="315.94" type="car" speed="13.15" pos="19.52" lane="-687674678#11_0" slope="0.00"/>
        <vehicle id="flow_15_in.0" x="565.10" y="410.94" angle="66.34" type="car" speed="0.96" pos="333.28" lane="school_internal_in_0" slope="0.00"/>
        <vehicle id="flow_5_in.0" x="573.18" y="414.48" angle="66.34" type="car" speed="0.70" pos="342.11" lane="school_internal_in_0" slope="0.00"/>
        <vehicle id="flow_5_in.1" x="424.79" y="447.48" angle="139.92" type="car" speed="0.92" pos="152.30" lane="school_internal_in_0" slope="0.00"/>
        <vehicle id="flow_5_in.2" x="412.49" y="846.11" angle="215.29" type="car" speed="5.85" pos="5.44" lane=":cluster_-254_-998_12_0" slope="0.00"/>
    </timestep>
    <timestep time="23940.00">
        <vehicle id="flow_0_in.0" x="579.09" y="428.97" angle="355.41" type="car" speed="7.56" pos="9.99" lane="27669895#0_0" slope="0.00"/>
        <vehicle id="flow_0_in.1" x="391.57" y="486.96" angle="139.92" type="car" speed="0.73" pos="100.70" lane="school_internal_in_0" slope="0.00"/>
        <vehicle id="flow_0_in.2" x="671.07" y="454.90" angle="59.63" type="car" speed="11.50" pos="102.94" lane="27669907#1_0" slope="0.00"/>
        <vehicle id="flow_10_in.0" x="582.46" y="521.26" angle="13.04" type="car" speed="13.70" pos="102.87" lane="27669895#0_0" slope="0.00"/>
        <vehicle id="flow_10_in.1" x="521.21" y="391.72" angle="66.34" type="car" speed="0.72" pos="285.38" lane="school_internal_in_0" slope="0.00"/>
        <vehicle id="flow_10_in.2" x="382.56" y="497.67" angle="139.92" type="car" speed="0.76" pos="86.71" lane="school_internal_in_0" slope="0.00"/>
        <vehicle id="flow_10_in.3" x="358.85" y="525.85" angle="139.92" type="car" speed="0.63" pos="49.88" lane="school_internal_in_0" slope="0.00"/>
        <vehicle id="flow_10_in.4" x="627.62" y="681.97" angle="263.39" type="car" speed="14.14" pos="46.69" lane="-27669894#2_0" slope="0.00"/>
        <vehicle id="flow_15_in.0" x="631.30" y="546.38" angle="115.75" type="car" speed="12.28" pos="33.07" lane="27669888#1_0" slope="0.00"/>
        <vehicle id="flow_5_in.0" x="695.95" y="484.34" angle="149.20" type="car" speed="7.94" pos="125.12" lane="27669888#1_0" slope="0.00"/>
        <vehicle id="flow_5_in.1" x="447.69" y="420.27" angle="139.92" type="car" speed="1.06" pos="187.86" lane="school_internal_in_0" slope="0.00"/>
        <vehicle id="flow_5_in.2" x="327.23" y="563.43" angle="130.41" type="car" speed="0.83" pos="0.77" lane="school_internal_in_0" slope="0.00"/>
    </timestep>
    <timestep time="23970.00">
        <vehicle id="flow_0_in.0" x="650.47" y="439.60" angle="192.61" type="car" speed="14.06" pos="58.43" lane="-27669907#1_0" slope="0.00"/>
        <vehicle id="flow_0_in.1" x="408.40" y="466.96" angle="139.92" type="car" speed="1.09" pos="126.84" lane="school_internal_in_0" slope="0.00"/>
        <vehicle id="flow_0_in.2" x="481.75" y="586.34" angle="264.98" type="car" speed="11.48" pos="111.69" lane="-27669888#0_0" slope="0.00"/>
        <vehicle id="flow_10_in.0" x="772.04" y="513.24" angle="60.15" type="car" speed="0.27" pos="71.45" lane="27669907#2_0" slope="0.00"/>
        <vehicle id="flow_10_in.1" x="551.06" y="404.79" angle="66.34" type="car" speed="1.11" pos="317.95" lane="school_internal_in_0" slope="0.00"/>
        <vehicle id="flow_10_in.2" x="399.74" y="477.25" angle="139.92" type="car" speed="0.65" pos="113.40" lane="school_internal_in_0" slope="0.00"/>
        <vehicle id="flow_10_in.3" x="358.93" y="525.77" angle="139.92" type="car" speed="0.00" pos="49.99" lane="school_internal_in_0" slope="0.00"/>
        <vehicle id="flow_10_in.4" x="318.63" y="597.99" angle="175.78" type="car" speed="14.23" pos="15.16" lane="821487355#1_0" slope="0.00"/>
        <vehicle id="flow_10_in.5" x="1313.77" y="581.12" angle="217.61" type="car" speed="14.54" pos="0.20" lane="-687674681_0" slope="0.00"/>
        <vehicle id="flow_15_in.0" x="765.76" y="547.28" angle="334.83" type="car" speed="11.88" pos="24.33" lane="-27669894#3_0" slope="0.00"/>
        <vehicle id="flow_5_in.0" x="729.77" y="599.48" angle="317.64" type="car" speed="12.16" pos="88.24" lane="-27669894#3_0" slope="0.00"/>
        <vehicle id="flow_5_in.1" x="467.47" y="396.76" angle="139.92" type="car" speed="0.96" pos="218.59" lane="school_internal_in_0" slope="0.00"/>
        <vehicle id="flow_5_in.2" x="348.46" y="538.20" angle="139.92" type="car" speed="1.13" pos="33.74" lane="school_internal_in_0" slope="0.00"/>
    </timestep>
    <timestep time="24000.00">
        <vehicle id="flow_0_in.0" x="896.88" y="244.96" angle="141.74" type="car" speed="13.72" pos="18.72" lane="27669865#1_0" slope="0.00"/>
        <vehicle id="flow_0_in.1" x="425.08" y="447.13" angle="139.92" type="car" speed="0.96" pos="152.76" lane="school_internal_in_0" slope="0.00"/>
        <vehicle id="flow_0_in.2" x="333.96" y="555.43" angle="139.92" type="car" speed="0.63" pos="11.22" lane="school_internal_in_0" slope="0.00"/>
        <vehicle id="flow_10_in.0" x="956.50" y="450.93" angle="45.84" type="car" speed="10.86" pos="8.78" lane="27669908#5_0" slope="0.00"/>
        <vehicle id="flow_10_in.1" x="576.97" y="464.03" angle="356.84" type="car" speed="13.89" pos="45.12" lane="27669895#0_0" slope="0.00"/>
        <vehicle id="flow_10_in.2" x="417.27" y="456.42" angle="139.92" type="car" speed="1.00" pos="140.62" lane="school_internal_in_0" slope="0.00"/>
        <vehicle id="flow_10_in.3" x="367.20" y="515.94" angle="139.92" type="car" speed="0.93" pos="62.84" lane="school_internal_in_0" slope="0.00"/>
        <vehicle id="flow_10_in.4" x="344.11" y="543.38" angle="139.92" type="car" speed="1.21" pos="26.97" lane="school_internal_in_0" slope="0.00"/>
        <vehicle id="flow_10_in.5" x="1090.93" y="478.89" angle="316.38" type="car" speed="13.91" pos="0.41" lane="-687674678#16_0" slope="0.00"/>
        <vehicle id="flow_15_in.0" x="778.81" y="803.20" angle="322.00" type="car" speed="11.38" pos="19.22" lane="-687674678#8_0" slope="0.00"/>
        <vehicle id="flow_5_in.0" x="765.23" y="821.45" angle="323.89" type="car" speed="12.10" pos="41.97" lane="-687674678#8_0" slope="0.00"/>
        <vehicle id="flow_5_in.1" x="489.54" y="377.84" angle="67.32" type="car" speed="1.34" pos="250.80" lane="school_internal_in_0" slope="0.00"/>
        <vehicle id="flow_5_in.2" x="354.08" y="531.52" angle="139.92" type="car" speed="0.00" pos="42.47" lane="school_internal_in_0" slope="0.00"/>
    </timestep>
    <timestep time="24030.00">
        <vehicle id="flow_0_in.0" x="1234.61" y="80.57" angle="81.67" type="car" speed="13.42" pos="14.85" lane="690833054#1_0" slope="0.00"/>
        <vehicle id="flow_0_in.1" x="442.18" y="426.81" angle="139.92" type="car" speed="0.88" pos="179.31" lane="school_internal_in_0" slope="0.00"/>
        <vehicle id="flow_0_in.2" x="344.42" y="543.00" angle="139.92" type="car" speed="0.00" pos="27.46" lane="school_internal_in_0" slope="0.00"/>
        <vehicle id="flow_10_in.0" x="1143.58" y="420.48" angle="135.48" type="car" speed="0.01" pos="63.70" lane="687674678#17_0" slope="0.00"/>
        <vehicle id="flow_10_in.1" x="770.91" y="512.59" angle="60.15" type="car" speed="4.91" pos="70.15" lane="27669907#2_0" slope="0.00"/>
        <vehicle id="flow_10_in.2" x="434.06" y="436.46" angle="139.92" type="car" speed="1.05" pos="166.70" lane="school_internal_in_0" slope="0.00"/>
        <vehicle id="flow_10_in.3" x="387.10" y="492.28" angle="139.92" type="car" speed="0.72" pos="93.76" lane="school_internal_in_0" slope="0.00"/>
        <vehicle id="flow_10_in.4" x="349.25" y="537.26" angle="139.92" type="car" speed="0.00" pos="34.97" lane="school_internal_in_0" slope="0.00"/>
        <vehicle id="flow_10_in.5" x="813.43" y="765.45" angle="313.80" type="car" speed="4.10" pos="1.60" lane="-687674678#10_0" slope="0.00"/>
        <vehicle id="flow_15_in.0" x="795.81" y="1042.39" angle="67.60" type="car" speed="11.16" pos="42.17" lane="27669874#3_0" slope="0.00"/>
        <vehicle id="flow_5_in.0" x="812.66" y="1049.33" angle="67.60" type="car" speed="6.44" pos="60.40" lane="27669874#3_0" slope="0.00"/>
        <vehicle id="flow_5_in.1" x="517.78" y="390.21" angle="66.34" type="car" speed="1.19" pos="281.63" lane="school_internal_in_0" slope="0.00"/>
        <vehicle id="flow_5_in.2" x="358.94" y="525.75" angle="139.92" type="car" speed="1.33" pos="50.02" lane="school_internal_in_0" slope="0.00"/>
    </timestep>
    <timestep time="24060.00">
        <vehicle id="flow_0_in.0" x="1507.55" y="80.93" angle="98.57" type="car" speed="3.82" pos="29.48" lane="856730052#2_0" slope="0.00"/>
        <vehicle id="flow_0_in.1" x="458.36" y="407.58" angle="139.92" type="car" speed="1.12" pos="204.44" lane="school_internal_in_0" slope="0.00"/>
        <vehicle id="flow_0_in.2" x="344.42" y="543.00" angle="139.92" type="car" speed="0.00" pos="27.46" lane="school_internal_in_0" slope="0.00"/>
        <vehicle id="flow_0_in.3" x="1372.41" y="116.37" angle="253.25" type="car" speed="14.48" pos="43.03" lane="-690833054#2_0" slope="0.00"/>