<?xml version="1.0" encoding="UTF-8"?>

<!-- generated on 2026-04-03T22:08:12.627102+02:00 by Eclipse SUMO sumo 1.26.0
<sumoConfiguration xmlns:xsi="http://www.w3.org/2001/XMLSchema-instance" xsi:noNamespaceSchemaLocation="http://sumo.dlr.de/xsd/sumoConfiguration.xsd">

    <input>
        <net-file value="C:\Users\neill\Github\tokai-sim\sim\sumo\bergvliet.net.xml"/>
        <route-files value="C:\Users\neill\Github\tokai-sim\sim\sumo\demand-M.rou.xml"/>
        <additional-files value="C:\Users\neill\Github\tokai-sim\sim\sumo\speed-humps.add.xml"/>
    </input>

    <output>
        <fcd-output value="C:\Users\neill\Github\tokai-sim\sim\sumo\fcd-M.xml"/>
        <tripinfo-output value="C:\Users\neill\Github\tokai-sim\sim\sumo\tripinfo-M.xml"/>
    </output>

    <time>
        <begin value="23400"/>
        <end value="32400"/>
        <step-length value="1"/>
    </time>

    <processing>
        <ignore-route-errors value="true"/>
    </processing>

    <routing>
        <routing-algorithm value="astar"/>
        <device.rerouting.probability value="1.0"/>
        <device.rerouting.period value="60"/>
        <device.rerouting.pre-period value="0"/>
    </routing>

    <report>
        <no-warnings value="true"/>
        <no-step-log value="true"/>
    </report>

    <fcd_device>
        <device.fcd.period value="30"/>
    </fcd_device>

</sumoConfiguration>
-->

<tripinfos xmlns:xsi="http://www.w3.org/2001/XMLSchema-instance" xsi:noNamespaceSchemaLocation="http://sumo.dlr.de/xsd/tripinfo_file.xsd">
    <tripinfo id="flow_5_in.0" depart="23400.00" departLane="-687674693#1_0" departPos="0.20" departSpeed="5.45" departDelay="0.00" arrival="24057.00" arrivalLane="-687674693#1_0" arrivalPos="0.20" arrivalSpeed="2.85" duration="657.00" routeLength="3023.04" waitingTime="2.00" waitingCount="2" stopTime="45.00" timeLoss="136.98" rerouteNo="1" devices="tripinfo_flow_5_in.0 routing_flow_5_in.0 fcd_flow_5_in.0" vType="car" speedFactor="0.94" vaporized=""/>
    <tripinfo id="flow_10_in.0" depart="23400.00" departLane="-687674681_0" departPos="0.20" departSpeed="14.03" departDelay="0.00" arrival="24058.00" arrivalLane="-687674681_0" arrivalPos="0.20" arrivalSpeed="11.84" duration="658.00" routeLength="2925.56" waitingTime="5.00" waitingCount="5" stopTime="45.00" timeLoss="170.72" rerouteNo="1" devices="tripinfo_flow_10_in.0 routing_flow_10_in.0 fcd_flow_10_in.0" vType="car" speedFactor="1.01" vaporized=""/>
    <tripinfo id="flow_0_in.0" depart="23400.00" departLane="-690833056#0_0" departPos="5.10" departSpeed="14.72" departDelay="0.00" arrival="24084.00" arrivalLane="-690833056#0_0" arrivalPos="10.76" arrivalSpeed="8.48" duration="684.00" routeLength="3544.68" waitingTime="10.00" waitingCount="1" stopTime="45.00" timeLoss="169.29" rerouteNo="1" devices="tripinfo_flow_0_in.0 routing_flow_0_in.0 fcd_flow_0_in.0" vType="car" speedFactor="1.06" vaporized=""/>
    <tripinfo id="flow_15_in.0" depart="23400.00" departLane="27669864_0" departPos="0.20" departSpeed="4.12" departDelay="0.00" arrival="24091.00" arrivalLane="27669864_0" arrivalPos="0.20" arrivalSpeed="2.69" duration="691.00" routeLength="3692.58" waitingTime="2.00" waitingCount="2" stopTime="45.00" timeLoss="189.41" rerouteNo="1" devices="tripinfo_flow_15_in.0 routing_flow_15_in.0 fcd_flow_15_in.0" vType="car" speedFactor="1.08" vaporized=""/>
    <tripinfo id="flow_10_in.1" depart="23478.00" departLane="-687674681_0" departPos="0.20" departSpeed="0.00" departDelay="0.43" arrival="24132.00" arrivalLane="-687674681_0" arrivalPos="0.20" arrivalSpeed="8.84" duration="654.00" routeLength="2852.51" waitingTime="37.00" waitingCount="6" stopTime="45.00" timeLoss="183.25" rerouteNo="1" devices="tripinfo_flow_10_in.1 routing_flow_10_in.1 fcd_flow_10_in.1" vType="car" speedFactor="1.03" vaporized=""/>
    <tripinfo id="flow_5_in.1" depart="23493.00" departLane="-687674693#1_0" departPos="0.20" departSpeed="5.45" departDelay="0.69" arrival="24218.00" arrivalLane="-687674693#1_0" arrivalPos="0.20" arrivalSpeed="2.65" duration="725.00" routeLength="3023.04" waitingTime="2.00" waitingCount="2" stopTime="45.00" timeLoss="147.06" rerouteNo="1" devices="tripinfo_flow_5_in.1 routing_flow_5_in.1 fcd_flow_5_in.1" vType="car" speedFactor="0.83" vaporized=""/>
    <tripinfo id="flow_15_in.1" depart="23549.00" departLane="27669864_0" departPos="0.20" departSpeed="4.12" departDelay="0.12" arrival="24252.00" arrivalLane="27669864_0" arrivalPos="0.20" arrivalSpeed="3.46" duration="703.00" routeLength="3692.58" waitingTime="2.00" waitingCount="2" stopTime="45.00" timeLoss="187.93" rerouteNo="1" devices="tripinfo_flow_15_in.1 routing_flow_15_in.1 fcd_flow_15_in.1" vType="car" speedFactor="1.05" vaporized=""/>
    <tripinfo id="flow_5_in.2" depart="23585.00" departLane="-687674693#1_0" departPos="0.20" departSpeed="5.45" departDelay="0.38" arrival="24295.00" arrivalLane="-687674693#1_0" arrivalPos="0.20" arrivalSpeed="2.34" duration="710.00" routeLength="3023.04" waitingTime="2.00" waitingCount="2" stopTime="45.00" timeLoss="147.70" rerouteNo="1" devices="tripinfo_flow_5_in.2 routing_flow_5_in.2 fcd_flow_5_in.2" vType="car" speedFactor="0.86" vaporized=""/>
    <tripinfo id="flow_10_in.2" depart="23556.00" departLane="-687674681_0" departPos="0.20" departSpeed="0.00" departDelay="0.86" arrival="24311.00" arrivalLane="-687674681_0" arrivalPos="0.20" arrivalSpeed="11.21" duration="755.00" routeLength="2852.51" waitingTime="44.00" waitingCount="6" stopTime="45.00" timeLoss="215.25" rerouteNo="1" devices="tripinfo_flow_10_in.2 routing_flow_10_in.2 fcd_flow_10_in.2" vType="car" speedFactor="0.89" vaporized=""/>
    <tripinfo id="flow_5_in.3" depart="23677.00" departLane="-687674693#1_0" departPos="0.20" departSpeed="5.45" departDelay="0.08" arrival="24313.00" arrivalLane="-687674693#1_0" arrivalPos="0.20" arrivalSpeed="3.28" duration="636.00" routeLength="3023.04" waitingTime="8.00" waitingCount="3" stopTime="45.00" timeLoss="153.42" rerouteNo="1" devices="tripinfo_flow_5_in.3 routing_flow_5_in.3 fcd_flow_5_in.3" vType="car" speedFactor="1.03" vaporized=""/>
    <tripinfo id="flow_10_in.3" depart="23633.00" departLane="-687674681_0" departPos="0.20" departSpeed="0.00" departDelay="0.29" arrival="24315.00" arrivalLane="-687674681_0" arrivalPos="0.20" arrivalSpeed="9.32" duration="682.00" routeLength="2925.56" waitingTime="63.00" waitingCount="7" stopTime="45.00" timeLoss="227.85" rerouteNo="1" devices="tripinfo_flow_10_in.3 routing_flow_10_in.3 fcd_flow_10_in.3" vType="car" speedFactor="1.09" vaporized=""/>
    <tripinfo id="flow_0_in.1" depart="23577.00" departLane="-690833056#0_0" departPos="5.10" departSpeed="13.03" departDelay="0.62" arrival="24322.00" arrivalLane="-690833056#0_0" arrivalPos="10.76" arrivalSpeed="7.32" duration="745.00" routeLength="3544.68" waitingTime="0.00" waitingCount="0" stopTime="45.00" timeLoss="168.88" rerouteNo="1" devices="tripinfo_flow_0_in.1 routing_flow_0_in.1 fcd_flow_0_in.1" vType="car" speedFactor="0.94" vaporized=""/>
    <tripinfo id="flow_10_in.4" depart="23711.00" departLane="-687674681_0" departPos="0.20" departSpeed="0.00" departDelay="0.72" arrival="24332.00" arrivalLane="-687674681_0" arrivalPos="0.20" arrivalSpeed="8.57" duration="621.00" routeLength="2925.56" waitingTime="52.00" waitingCount="5" stopTime="45.00" timeLoss="181.48" rerouteNo="1" devices="tripinfo_flow_10_in.4 routing_flow_10_in.4 fcd_flow_10_in.4" vType="car" speedFactor="1.12" vaporized=""/>
    <tripinfo id="flow_15_in.2" depart="23698.00" departLane="27669864_0" departPos="0.20" departSpeed="4.12" departDelay="0.23" arrival="24347.00" arrivalLane="27669864_0" arrivalPos="0.20" arrivalSpeed="2.88" duration="649.00" routeLength="3692.58" waitingTime="2.00" waitingCount="2" stopTime="45.00" timeLoss="136.23" rerouteNo="1" devices="tripinfo_flow_15_in.2 routing_flow_15_in.2 fcd_flow_15_in.2" vType="car" speedFactor="1.05" vaporized=""/>
    <tripinfo id="flow_5_in.4" depart="23770.00" departLane="-687674693#1_0" departPos="0.20" departSpeed="5.45" departDelay="0.77" arrival="24439.00" arrivalLane="-687674693#1_0" arrivalPos="0.20" arrivalSpeed="2.92" duration="669.00" routeLength="3023.04" waitingTime="2.00" waitingCount="2" stopTime="45.00" timeLoss="145.32" rerouteNo="1" devices="tripinfo_flow_5_in.4 routing_flow_5_in.4 fcd_flow_5_in.4" vType="car" speedFactor="0.93" vaporized=""/>
    <tripinfo id="flow_0_in.2" depart="23753.00" departLane="-690833056#0_0" departPos="5.10" departSpeed="13.77" departDelay="0.23" arrival="24458.00" arrivalLane="-690833056#0_0" arrivalPos="10.76" arrivalSpeed="9.12" duration="705.00" routeLength="3544.68" waitingTime="0.00" waitingCount="0" stopTime="45.00" timeLoss="157.74" rerouteNo="1" devices="tripinfo_flow_0_in.2 routing_flow_0_in.2 fcd_flow_0_in.2" vType="car" speedFactor="0.99" vaporized=""/>
    <tripinfo id="flow_5_in.5" depart="23862.00" departLane="-687674693#1_0" departPos="0.20" departSpeed="5.45" departDelay="0.46" arrival="24560.00" arrivalLane="-687674693#1_0" arrivalPos="0.20" arrivalSpeed="2.82" duration="698.00" routeLength="3023.04" waitingTime="2.00" waitingCount="2" stopTime="45.00" timeLoss="177.16" rerouteNo="1" devices="tripinfo_flow_5_in.5 routing_flow_5_in.5 fcd_flow_5_in.5" vType="car" speedFactor="0.94" vaporized=""/>
    <tripinfo id="flow_10_in.6" depart="23866.00" departLane="-687674681_0" departPos="0.20" departSpeed="16.09" departDelay="0.59" arrival="24574.00" arrivalLane="-687674681_0" arrivalPos="0.20" arrivalSpeed="7.95" duration="708.00" routeLength="2917.72" waitingTime="51.00" waitingCount="4" stopTime="45.00" timeLoss="281.24" rerouteNo="2" devices="tripinfo_flow_10_in.6 routing_flow_10_in.6 fcd_flow_10_in.6" vType="car" speedFactor="1.16" vaporized=""/>
    <tripinfo id="flow_10_in.5" depart="23788.00" departLane="-687674681_0" departPos="0.20" departSpeed="12.20" departDelay="0.16" arrival="24576.00" arrivalLane="-687674681_0" arrivalPos="0.20" arrivalSpeed="9.71" duration="788.00" routeLength="2852.51" waitingTime="92.00" waitingCount="6" stopTime="45.00" timeLoss="244.69" rerouteNo="1" devices="tripinfo_flow_10_in.5 routing_flow_10_in.5 fcd_flow_10_in.5" vType="car" speedFactor="0.88" vaporized=""/>
    <tripinfo id="flow_15_in.3" depart="23847.00" departLane="27669864_0" departPos="0.20" departSpeed="4.12" departDelay="0.35" arrival="24583.00" arrivalLane="27669864_0" arrivalPos="0.20" arrivalSpeed="3.01" duration="736.00" routeLength="3692.58" waitingTime="2.00" waitingCount="2" stopTime="45.00" timeLoss="173.31" rerouteNo="1" devices="tripinfo_flow_15_in.3 routing_flow_15_in.3 fcd_flow_15_in.3" vType="car" speedFactor="0.94" vaporized=""/>
    <tripinfo id="flow_10_in.7" depart="23943.00" departLane="-687674681_0" departPos="0.20" departSpeed="14.03" departDelay="0.02" arrival="24586.00" arrivalLane="-687674681_0" arrivalPos="0.20" arrivalSpeed="10.13" duration="643.00" routeLength="2925.56" waitingTime="17.00" waitingCount="5" stopTime="45.00" timeLoss="157.39" rerouteNo="1" devices="tripinfo_flow_10_in.7 routing_flow_10_in.7 fcd_flow_10_in.7" vType="car" speedFactor="1.01" vaporized=""/>
    <tripinfo id="flow_5_in.6" depart="23954.00" departLane="-687674693#1_0" departPos="0.20" departSpeed="5.45" departDelay="0.15" arrival="24598.00" arrivalLane="-687674693#1_0" arrivalPos="0.20" arrivalSpeed="2.41" duration="644.00" routeLength="3023.04" waitingTime="3.00" waitingCount="3" stopTime="45.00" timeLoss="142.06" rerouteNo="1" devices="tripinfo_flow_5_in.6 routing_flow_5_in.6 fcd_flow_5_in.6" vType="car" speedFactor="0.97" vaporized=""/>
    <tripinfo id="flow_0_in.3" depart="23930.00" departLane="-690833056#0_0" departPos="5.10" departSpeed="14.14" departDelay="0.85" arrival="24616.00" arrivalLane="-690833056#0_0" arrivalPos="10.76" arrivalSpeed="8.95" duration="686.00" routeLength="3590.55" waitingTime="1.00" waitingCount="1" stopTime="45.00" timeLoss="147.70" rerouteNo="1" devices="tripinfo_flow_0_in.3 routing_flow_0_in.3 fcd_flow_0_in.3" vType="car" speedFactor="1.02" vaporized=""/>
    <tripinfo id="flow_15_in.4" depart="23996.00" departLane="27669864_0" departPos="0.20" departSpeed="4.12" departDelay="0.47" arrival="24730.00" arrivalLane="27669864_0" arrivalPos="0.20" arrivalSpeed="2.85" duration="734.00" routeLength="3692.58" waitingTime="2.00" waitingCount="2" stopTime="45.00" timeLoss="142.83" rerouteNo="1" devices="tripinfo_flow_15_in.4 routing_flow_15_in.4 fcd_flow_15_in.4" vType="car" speedFactor="0.89" vaporized=""/>
    <tripinfo id="flow_5_in.7" depart="24047.00" departLane="-687674693#1_0" departPos="0.20" departSpeed="5.45" departDelay="0.84" arrival="24750.00" arrivalLane="-687674693#1_0" arrivalPos="0.20" arrivalSpeed="2.95" duration="703.00" routeLength="3023.04" waitingTime="2.00" waitingCount="2" stopTime="45.00" timeLoss="149.16" rerouteNo="1" devices="tripinfo_flow_5_in.7 routing_flow_5_in.7 fcd_flow_5_in.7" vType="car" speedFactor="0.87" vaporized=""/>
    <tripinfo id="flow_5_in.8" depart="24139.00" departLane="-687674693#1_0" departPos="0.20" departSpeed="5.45" departDelay="0.54" arrival="24773.00" arrivalLane="-687674693#1_0" arrivalPos="0.20" arrivalSpeed="3.41" duration="634.00" routeLength="3023.04" waitingTime="3.00" waitingCount="3" stopTime="45.00" timeLoss="190.57" rerouteNo="1" devices="tripinfo_flow_5_in.8 routing_flow_5_in.8 fcd_flow_5_in.8" vType="car" speedFactor="1.13" vaporized=""/>
    <tripinfo id="flow_10_in.8" depart="24021.00" departLane="-687674681_0" departPos="0.20" departSpeed="0.00" departDelay="0.45" arrival="24783.00" arrivalLane="-687674681_0" arrivalPos="0.20" arrivalSpeed="10.69" duration="762.00" routeLength="2925.56" waitingTime="12.00" waitingCount="5" stopTime="45.00" timeLoss="178.76" rerouteNo="1" devices="tripinfo_flow_10_in.8 routing_flow_10_in.8 fcd_flow_10_in.8" vType="car" speedFactor="0.83" vaporized=""/>
    <tripinfo id="flow_10_in.9" depart="24099.00" departLane="-687674681_0" departPos="0.20" departSpeed="0.00" departDelay="0.88" arrival="24790.00" arrivalLane="-687674681_0" arrivalPos="0.20" arrivalSpeed="9.69" duration="691.00" routeLength="2925.56" waitingTime="24.00" waitingCount="5" stopTime="45.00" timeLoss="162.30" rerouteNo="1" devices="tripinfo_flow_10_in.9 routing_flow_10_in.9 fcd_flow_10_in.9" vType="car" speedFactor="0.92" vaporized=""/>
    <tripinfo id="flow_5_in.9" depart="24231.00" departLane="-687674693#1_0" departPos="0.20" departSpeed="5.45" departDelay="0.23" arrival="24825.00" arrivalLane="-687674693#1_0" arrivalPos="0.20" arrivalSpeed="4.11" duration="594.00" routeLength="3023.04" waitingTime="2.00" waitingCount="2" stopTime="45.00" timeLoss="160.52" rerouteNo="1" devices="tripinfo_flow_5_in.9 routing_flow_5_in.9 fcd_flow_5_in.9" vType="car" speedFactor="1.15" vaporized=""/>
    <tripinfo id="flow_0_in.4" depart="24106.00" departLane="-690833056#0_0" departPos="5.10" departSpeed="13.18" departDelay="0.46" arrival="24826.00" arrivalLane="-690833056#0_0" arrivalPos="10.76" arrivalSpeed="8.30" duration="720.00" routeLength="3590.55" waitingTime="2.00" waitingCount="2" stopTime="45.00" timeLoss="145.70" rerouteNo="1" devices="tripinfo_flow_0_in.4 routing_flow_0_in.4 fcd_flow_0_in.4" vType="car" speedFactor="0.95" vaporized=""/>
    <tripinfo id="flow_10_in.10" depart="24176.00" departLane="-687674681_0" departPos="0.20" departSpeed="0.00" departDelay="0.31" arrival="24850.00" arrivalLane="-687674681_0" arrivalPos="0.20" arrivalSpeed="10.44" duration="674.00" routeLength="2844.67" waitingTime="73.00" waitingCount="5" stopTime="45.00" timeLoss="258.95" rerouteNo="1" devices="tripinfo_flow_10_in.10 routing_flow_10_in.10 fcd_flow_10_in.10" vType="car" speedFactor="1.18" vaporized=""/>
    <tripinfo id="flow_15_in.5" depart="24145.00" departLane="27669864_0" departPos="0.20" departSpeed="4.12" departDelay="0.59" arrival="24856.00" arrivalLane="27669864_0" arrivalPos="0.20" arrivalSpeed="3.17" duration="711.00" routeLength="3692.58" waitingTime="2.00" waitingCount="2" stopTime="45.00" timeLoss="141.86" rerouteNo="1" devices="tripinfo_flow_15_in.5 routing_flow_15_in.5 fcd_flow_15_in.5" vType="car" speedFactor="0.93" vaporized=""/>
    <tripinfo id="flow_0_in.5" depart="24282.00" departLane="-690833056#0_0" departPos="5.10" departSpeed="16.28" departDelay="0.08" arrival="24868.00" arrivalLane="-690833056#0_0" arrivalPos="10.76" arrivalSpeed="7.61" duration="586.00" routeLength="3544.68" waitingTime="1.00" waitingCount="1" stopTime="45.00" timeLoss="114.54" rerouteNo="1" devices="tripinfo_flow_0_in.5 routing_flow_0_in.5 fcd_flow_0_in.5" vType="car" speedFactor="1.17" vaporized=""/>
    <tripinfo id="flow_10_in.11" depart="24254.00" departLane="-687674681_0" departPos="0.20" departSpeed="0.00" departDelay="0.74" arrival="24941.00" arrivalLane="-687674681_0" arrivalPos="0.20" arrivalSpeed="9.95" duration="687.00" routeLength="2852.51" waitingTime="50.00" waitingCount="6" stopTime="45.00" timeLoss="205.22" rerouteNo="2" devices="tripinfo_flow_10_in.11 routing_flow_10_in.11 fcd_flow_10_in.11" vType="car" speedFactor="1.01" vaporized=""/>
    <tripinfo id="flow_5_in.10" depart="24324.00" departLane="-687674693#1_0" departPos="0.20" departSpeed="5.45" departDelay="0.92" arrival="24952.00" arrivalLane="-687674693#1_0" arrivalPos="0.20" arrivalSpeed="2.65" duration="628.00" routeLength="3023.04" waitingTime="2.00" waitingCount="2" stopTime="45.00" timeLoss="146.14" rerouteNo="1" devices="tripinfo_flow_5_in.10 routing_flow_5_in.10 fcd_flow_5_in.10" vType="car" speedFactor="1.02" vaporized=""/>
    <tripinfo id="flow_15_in.6" depart="24294.00" departLane="27669864_0" departPos="0.20" departSpeed="4.12" departDelay="0.70" arrival="24965.00" arrivalLane="27669864_0" arrivalPos="0.20" arrivalSpeed="3.41" duration="671.00" routeLength="3692.58" waitingTime="2.00" waitingCount="2" stopTime="45.00" timeLoss="135.38" rerouteNo="1" devices="tripinfo_flow_15_in.6 routing_flow_15_in.6 fcd_flow_15_in.6" vType="car" speedFactor="0.99" vaporized=""/>
    <tripinfo id="flow_10_in.12" depart="24331.00" departLane="-687674681_0" departPos="0.20" departSpeed="13.52" departDelay="0.17" arrival="24968.00" arrivalLane="-687674681_0" arrivalPos="0.20" arrivalSpeed="10.08" duration="637.00" routeLength="2852.51" waitingTime="4.00" waitingCount="4" stopTime="45.00" timeLoss="142.53" rerouteNo="1" devices="tripinfo_flow_10_in.12 routing_flow_10_in.12 fcd_flow_10_in.12" vType="car" speedFactor="0.97" vaporized=""/>
    <tripinfo id="flow_5_in.11" depart="24416.00" departLane="-687674693#1_0" departPos="0.20" departSpeed="5.45" departDelay="0.61" arrival="24999.00" arrivalLane="-687674693#1_0" arrivalPos="0.20" arrivalSpeed="3.33" duration="583.00" routeLength="3023.04" waitingTime="3.00" waitingCount="3" stopTime="45.00" timeLoss="131.71" rerouteNo="1" devices="tripinfo_flow_5_in.11 routing_flow_5_in.11 fcd_flow_5_in.11" vType="car" speedFactor="1.10" vaporized=""/>
    <tripinfo id="flow_10_in.13" depart="24409.00" departLane="-687674681_0" departPos="0.20" departSpeed="16.39" departDelay="0.60" arrival="25024.00" arrivalLane="-687674681_0" arrivalPos="0.20" arrivalSpeed="9.78" duration="615.00" routeLength="2917.72" waitingTime="48.00" waitingCount="4" stopTime="45.00" timeLoss="193.59" rerouteNo="1" devices="tripinfo_flow_10_in.13 routing_flow_10_in.13 fcd_flow_10_in.13" vType="car" speedFactor="1.18" vaporized=""/>
    <tripinfo id="flow_5_in.12" depart="24508.00" departLane="-687674693#1_0" departPos="0.20" departSpeed="5.45" departDelay="0.30" arrival="25146.00" arrivalLane="-687674693#1_0" arrivalPos="0.20" arrivalSpeed="3.88" duration="638.00" routeLength="3023.04" waitingTime="3.00" waitingCount="3" stopTime="45.00" timeLoss="182.87" rerouteNo="1" devices="tripinfo_flow_5_in.12 routing_flow_5_in.12 fcd_flow_5_in.12" vType="car" speedFactor="1.09" vaporized=""/>
    <tripinfo id="flow_0_in.6" depart="24459.00" departLane="-690833056#0_0" departPos="5.10" departSpeed="14.31" departDelay="0.70" arrival="25155.00" arrivalLane="-690833056#0_0" arrivalPos="10.76" arrivalSpeed="8.64" duration="696.00" routeLength="3544.68" waitingTime="0.00" waitingCount="0" stopTime="45.00" timeLoss="168.87" rerouteNo="1" devices="tripinfo_flow_0_in.6 routing_flow_0_in.6 fcd_flow_0_in.6" vType="car" speedFactor="1.03" vaporized=""/>
    <tripinfo id="flow_15_in.7" depart="24443.00" departLane="27669864_0" departPos="0.20" departSpeed="4.12" departDelay="0.82" arrival="25179.00" arrivalLane="27669864_0" arrivalPos="0.20" arrivalSpeed="2.26" duration="736.00" routeLength="3692.58" waitingTime="2.00" waitingCount="2" stopTime="45.00" timeLoss="148.61" rerouteNo="1" devices="tripinfo_flow_15_in.7 routing_flow_15_in.7 fcd_flow_15_in.7" vType="car" speedFactor="0.90" vaporized=""/>
    <tripinfo id="flow_5_in.13" depart="24601.00" departLane="-687674693#1_0" departPos="0.20" departSpeed="5.45" departDelay="1.00" arrival="25194.00" arrivalLane="-687674693#1_0" arrivalPos="0.20" arrivalSpeed="3.84" duration="593.00" routeLength="3023.04" waitingTime="2.00" waitingCount="2" stopTime="45.00" timeLoss="136.99" rerouteNo="1" devices="tripinfo_flow_5_in.13 routing_flow_5_in.13 fcd_flow_5_in.13" vType="car" speedFactor="1.09" vaporized=""/>
    <tripinfo id="flow_10_in.14" depart="24486.00" departLane="-687674681_0" departPos="0.20" departSpeed="13.29" departDelay="0.03" arrival="25212.00" arrivalLane="-687674681_0" arrivalPos="0.20" arrivalSpeed="9.03" duration="726.00" routeLength="2852.51" waitingTime="51.00" waitingCount="6" stopTime="45.00" timeLoss="222.97" rerouteNo="1" devices="tripinfo_flow_10_in.14 routing_flow_10_in.14 fcd_flow_10_in.14" vType="car" speedFactor="0.96" vaporized=""/>
    <tripinfo id="flow_10_in.15" depart="24564.00" departLane="-687674681_0" departPos="0.20" departSpeed="0.00" departDelay="0.47" arrival="25215.00" arrivalLane="-687674681_0" arrivalPos="0.20" arrivalSpeed="11.07" duration="651.00" routeLength="2925.56" waitingTime="32.00" waitingCount="6" stopTime="45.00" timeLoss="176.86" rerouteNo="2" devices="tripinfo_flow_10_in.15 routing_flow_10_in.15 fcd_flow_10_in.15" vType="car" speedFactor="1.04" vaporized=""/>
    <tripinfo id="flow_15_in.8" depart="24592.00" departLane="27669864_0" departPos="0.20" departSpeed="4.12" departDelay="0.94" arrival="25245.00" arrivalLane="27669864_0" arrivalPos="0.20" arrivalSpeed="2.79" duration="653.00" routeLength="3692.58" waitingTime="2.00" waitingCount="2" stopTime="45.00" timeLoss="137.08" rerouteNo="1" devices="tripinfo_flow_15_in.8 routing_flow_15_in.8 fcd_flow_15_in.8" vType="car" speedFactor="1.04" vaporized=""/>
    <tripinfo id="flow_0_in.7" depart="24635.00" departLane="-690833056#0_0" departPos="5.10" departSpeed="13.85" departDelay="0.31" arrival="25307.00" arrivalLane="-690833056#0_0" arrivalPos="10.76" arrivalSpeed="8.64" duration="672.00" routeLength="3544.68" waitingTime="0.00" waitingCount="0" stopTime="45.00" timeLoss="127.09" rerouteNo="1" devices="tripinfo_flow_0_in.7 routing_flow_0_in.7 fcd_flow_0_in.7" vType="car" speedFactor="1.00" vaporized=""/>
    <tripinfo id="flow_5_in.14" depart="24693.00" departLane="-687674693#1_0" departPos="0.20" departSpeed="5.45" departDelay="0.69" arrival="25391.00" arrivalLane="-687674693#1_0" arrivalPos="0.20" arrivalSpeed="3.02" duration="698.00" routeLength="3023.04" waitingTime="4.00" waitingCount="2" stopTime="45.00" timeLoss="147.24" rerouteNo="1" devices="tripinfo_flow_5_in.14 routing_flow_5_in.14 fcd_flow_5_in.14" vType="car" speedFactor="0.88" vaporized=""/>
    <tripinfo id="flow_10_in.16" depart="24642.00" departLane="-687674681_0" departPos="0.20" departSpeed="0.00" departDelay="0.90" arrival="25392.00" arrivalLane="-687674681_0" arrivalPos="0.20" arrivalSpeed="9.66" duration="750.00" routeLength="2852.51" waitingTime="62.00" waitingCount="6" stopTime="45.00" timeLoss="219.58" rerouteNo="1" devices="tripinfo_flow_10_in.16 routing_flow_10_in.16 fcd_flow_10_in.16" vType="car" speedFactor="0.90" vaporized=""/>
    <tripinfo id="flow_5_in.15" depart="24785.00" departLane="-687674693#1_0" departPos="0.20" departSpeed="5.45" departDelay="0.38" arrival="25474.00" arrivalLane="-687674693#1_0" arrivalPos="0.20" arrivalSpeed="3.31" duration="689.00" routeLength="3023.04" waitingTime="2.00" waitingCount="2" stopTime="45.00" timeLoss="257.42" rerouteNo="1" devices="tripinfo_flow_5_in.15 routing_flow_5_in.15 fcd_flow_5_in.15" vType="car" speedFactor="1.17" vaporized=""/>
    <tripinfo id="flow_10_in.17" depart="24719.00" departLane="-687674681_0" departPos="0.20" departSpeed="0.00" departDelay="0.33" arrival="25491.00" arrivalLane="-687674681_0" arrivalPos="0.20" arrivalSpeed="10.73" duration="772.00" routeLength="2852.51" waitingTime="42.00" waitingCount="6" stopTime="45.00" timeLoss="211.41" rerouteNo="1" devices="tripinfo_flow_10_in.17 routing_flow_10_in.17 fcd_flow_10_in.17" vType="car" speedFactor="0.85" vaporized=""/>
    <tripinfo id="flow_10_in.18" depart="24797.00" departLane="-687674681_0" departPos="0.20" departSpeed="0.00" departDelay="0.76" arrival="25494.00" arrivalLane="-687674681_0" arrivalPos="0.20" arrivalSpeed="9.54" duration="697.00" routeLength="2925.56" waitingTime="47.00" waitingCount="6" stopTime="45.00" timeLoss="216.14" rerouteNo="2" devices="tripinfo_flow_10_in.18 routing_flow_10_in.18 fcd_flow_10_in.18" vType="car" speedFactor="1.02" vaporized=""/>
    <tripinfo id="flow_0_in.8" depart="24812.00" departLane="-690833056#0_0" departPos="5.10" departSpeed="15.22" departDelay="0.93" arrival="25499.00" arrivalLane="-690833056#0_0" arrivalPos="10.76" arrivalSpeed="8.67" duration="687.00" routeLength="3544.68" waitingTime="1.00" waitingCount="1" stopTime="45.00" timeLoss="187.57" rerouteNo="1" devices="tripinfo_flow_0_in.8 routing_flow_0_in.8 fcd_flow_0_in.8" vType="car" speedFactor="1.10" vaporized=""/>
    <tripinfo id="flow_5_in.16" depart="24877.00" departLane="-687674693#1_0" departPos="0.20" departSpeed="5.45" departDelay="0.07" arrival="25508.00" arrivalLane="-687674693#1_0" arrivalPos="0.20" arrivalSpeed="2.39" duration="631.00" routeLength="3023.04" waitingTime="3.00" waitingCount="3" stopTime="45.00" timeLoss="140.49" rerouteNo="1" devices="tripinfo_flow_5_in.16 routing_flow_5_in.16 fcd_flow_5_in.16" vType="car" speedFactor="1.00" vaporized=""/>
    <tripinfo id="flow_15_in.9" depart="24740.00" departLane="27669864_0" departPos="0.20" departSpeed="4.12" departDelay="0.05" arrival="25509.00" arrivalLane="27669864_0" arrivalPos="0.20" arrivalSpeed="2.62" duration="769.00" routeLength="3692.58" waitingTime="2.00" waitingCount="2" stopTime="45.00" timeLoss="152.37" rerouteNo="1" devices="tripinfo_flow_15_in.9 routing_flow_15_in.9 fcd_flow_15_in.9" vType="car" speedFactor="0.85" vaporized=""/>
    <tripinfo id="flow_10_in.19" depart="24874.00" departLane="-687674681_0" departPos="0.20" departSpeed="13.93" departDelay="0.19" arrival="25572.00" arrivalLane="-687674681_0" arrivalPos="0.20" arrivalSpeed="10.29" duration="698.00" routeLength="2917.72" waitingTime="71.00" waitingCount="7" stopTime="45.00" timeLoss="208.99" rerouteNo="1" devices="tripinfo_flow_10_in.19 routing_flow_10_in.19 fcd_flow_10_in.19" vType="car" speedFactor="1.00" vaporized=""/>
    <tripinfo id="flow_5_in.17" depart="24970.00" departLane="-687674693#1_0" departPos="0.20" departSpeed="5.45" departDelay="0.76" arrival="25627.00" arrivalLane="-687674693#1_0" arrivalPos="0.20" arrivalSpeed="3.27" duration="657.00" routeLength="3023.04" waitingTime="2.00" waitingCount="2" stopTime="45.00" timeLoss="177.23" rerouteNo="1" devices="tripinfo_flow_5_in.17 routing_flow_5_in.17 fcd_flow_5_in.17" vType="car" speedFactor="1.02" vaporized=""/>
    <tripinfo id="flow_15_in.10" depart="24889.00" departLane="27669864_0" departPos="0.20" departSpeed="4.12" departDelay="0.17" arrival="25651.00" arrivalLane="27669864_0" arrivalPos="0.20" arrivalSpeed="3.08" duration="762.00" routeLength="3692.58" waitingTime="23.00" waitingCount="3" stopTime="45.00" timeLoss="175.03" rerouteNo="1" devices="tripinfo_flow_15_in.10 routing_flow_15_in.10 fcd_flow_15_in.10" vType="car" speedFactor="0.90" vaporized=""/>
    <tripinfo id="flow_10_in.20" depart="24952.00" departLane="-687674681_0" departPos="0.20" departSpeed="15.87" departDelay="0.62" arrival="25653.00" arrivalLane="-687674681_0" arrivalPos="0.20" arrivalSpeed="8.16" duration="701.00" routeLength="2917.72" waitingTime="49.00" waitingCount="4" stopTime="45.00" timeLoss="268.96" rerouteNo="1" devices="tripinfo_flow_10_in.20 routing_flow_10_in.20 fcd_flow_10_in.20" vType="car" speedFactor="1.14" vaporized=""/>
    <tripinfo id="flow_10_in.21" depart="25029.00" departLane="-687674681_0" departPos="0.20" departSpeed="15.04" departDelay="0.05" arrival="25661.00" arrivalLane="-687674681_0" arrivalPos="0.20" arrivalSpeed="10.92" duration="632.00" routeLength="2852.51" waitingTime="14.00" waitingCount="6" stopTime="45.00" timeLoss="182.07" rerouteNo="2" devices="tripinfo_flow_10_in.21 routing_flow_10_in.21 fcd_flow_10_in.21" vType="car" speedFactor="1.08" vaporized=""/>
    <tripinfo id="flow_0_in.9" depart="24988.00" departLane="-690833056#0_0" departPos="5.10" departSpeed="13.47" departDelay="0.54" arrival="25669.00" arrivalLane="-690833056#0_0" arrivalPos="10.76" arrivalSpeed="8.46" duration="681.00" routeLength="3544.68" waitingTime="0.00" waitingCount="0" stopTime="45.00" timeLoss="124.40" rerouteNo="1" devices="tripinfo_flow_0_in.9 routing_flow_0_in.9 fcd_flow_0_in.9" vType="car" speedFactor="0.97" vaporized=""/>
    <tripinfo id="flow_15_in.11" depart="25038.00" departLane="27669864_0" departPos="0.20" departSpeed="4.12" departDelay="0.29" arrival="25701.00" arrivalLane="27669864_0" arrivalPos="0.20" arrivalSpeed="3.73" duration="663.00" routeLength="3692.58" waitingTime="48.00" waitingCount="3" stopTime="45.00" timeLoss="173.53" rerouteNo="1" devices="tripinfo_flow_15_in.11 routing_flow_15_in.11 fcd_flow_15_in.11" vType="car" speedFactor="1.12" vaporized=""/>