<?xml version="1.0" encoding="UTF-8"?>

<!-- generated on 2026-04-22T11:15:37.504264+02:00 by Eclipse SUMO sumo 1.26.0
<sumoConfiguration xmlns:xsi="http://www.w3.org/2001/XMLSchema-instance" xsi:noNamespaceSchemaLocation="http://sumo.dlr.de/xsd/sumoConfiguration.xsd">

    <input>
        <net-file value="C:\Users\neill\Github\tokai-sim\sim\sumo\bergvliet.net.xml"/>
        <route-files value="C:\Users\neill\Github\tokai-sim\sim\sumo\demand-M.rou.xml"/>
        <additional-files value="C:\Users\neill\Github\tokai-sim\sim\sumo\speed-humps.add.xml"/>
    </input>

    <output>
        <fcd-output value="C:\Users\neill\Github\tokai-sim\sim\sumo\fcd-M.xml"/>
        <tripinfo-output value="C:\Users\neill\Github\tokai-sim\sim\sumo\tripinfo-M.xml"/>
    </output>

    <time>
        <begin value="23400"/>
        <end value="32400"/>
        <step-length value="1"/>
    </time>

    <routing>
        <routing-algorithm value="astar"/>
        <device.rerouting.probability value="1.0"/>
        <device.rerouting.period value="60"/>
        <device.rerouting.pre-period value="0"/>
    </routing>

    <report>
        <no-warnings value="false"/>
        <no-step-log value="true"/>
    </report>

    <fcd_device>
        <device.fcd.period value="30"/>
    </fcd_device>

</sumoConfiguration>
-->

<tripinfos xmlns:xsi="http://www.w3.org/2001/XMLSchema-instance" xsi:noNamespaceSchemaLocation="http://sumo.dlr.de/xsd/tripinfo_file.xsd">
    <tripinfo id="flow_1_out.0" depart="23401.00" departLane="-27669895#0_0" departPos="5.10" departSpeed="9.91" departDelay="1.00" arrival="23545.00" arrivalLane="-687674693#1_0" arrivalPos="0.20" arrivalSpeed="3.83" duration="144.00" routeLength="1571.10" waitingTime="1.00" waitingCount="1" stopTime="0.00" timeLoss="35.13" rerouteNo="1" devices="tripinfo_flow_1_out.0 routing_flow_1_out.0 fcd_flow_1_out.0" vType="car" speedFactor="1.08" vaporized=""/>
    <tripinfo id="flow_0_out.0" depart="23400.00" departLane="-27669895#0_0" departPos="5.10" departSpeed="13.03" departDelay="0.00" arrival="23574.00" arrivalLane="-690833056#0_0" arrivalPos="10.76" arrivalSpeed="8.19" duration="174.00" routeLength="1674.47" waitingTime="0.00" waitingCount="0" stopTime="0.00" timeLoss="27.70" rerouteNo="1" devices="tripinfo_flow_0_out.0 routing_flow_0_out.0 fcd_flow_0_out.0" vType="car" speedFactor="0.94" vaporized=""/>
    <tripinfo id="flow_2_out.0" depart="23402.00" departLane="-27669895#0_0" departPos="5.10" departSpeed="4.89" departDelay="2.00" arrival="23592.00" arrivalLane="-687674681_0" arrivalPos="0.20" arrivalSpeed="10.27" duration="190.00" routeLength="1346.47" waitingTime="24.00" waitingCount="4" stopTime="0.00" timeLoss="65.59" rerouteNo="1" devices="tripinfo_flow_2_out.0 routing_flow_2_out.0 fcd_flow_2_out.0" vType="car" speedFactor="0.83" vaporized=""/>
    <tripinfo id="flow_3_out.0" depart="23404.00" departLane="-27669895#0_0" departPos="5.10" departSpeed="3.50" departDelay="4.00" arrival="23611.00" arrivalLane="27669864_0" arrivalPos="0.20" arrivalSpeed="3.17" duration="207.00" routeLength="2050.42" waitingTime="3.00" waitingCount="1" stopTime="0.00" timeLoss="42.66" rerouteNo="1" devices="tripinfo_flow_3_out.0 routing_flow_3_out.0 fcd_flow_3_out.0" vType="car" speedFactor="0.89" vaporized=""/>
    <tripinfo id="flow_2_out.1" depart="23492.00" departLane="-27669895#0_0" departPos="5.10" departSpeed="11.90" departDelay="0.82" arrival="23682.00" arrivalLane="-687674681_0" arrivalPos="0.20" arrivalSpeed="10.86" duration="190.00" routeLength="1346.47" waitingTime="31.00" waitingCount="4" stopTime="0.00" timeLoss="69.44" rerouteNo="1" devices="tripinfo_flow_2_out.1 routing_flow_2_out.1 fcd_flow_2_out.1" vType="car" speedFactor="0.86" vaporized=""/>
    <tripinfo id="flow_1_out.1" depart="23573.00" departLane="-27669895#0_0" departPos="5.10" departSpeed="10.89" departDelay="1.57" arrival="23715.00" arrivalLane="-687674693#1_0" arrivalPos="0.20" arrivalSpeed="4.10" duration="142.00" routeLength="1571.10" waitingTime="1.00" waitingCount="1" stopTime="0.00" timeLoss="36.02" rerouteNo="1" devices="tripinfo_flow_1_out.1 routing_flow_1_out.1 fcd_flow_1_out.1" vType="car" speedFactor="1.12" vaporized=""/>
    <tripinfo id="flow_0_out.1" depart="23572.00" departLane="-27669895#0_0" departPos="5.10" departSpeed="14.26" departDelay="0.57" arrival="23733.00" arrivalLane="-690833056#0_0" arrivalPos="10.76" arrivalSpeed="9.43" duration="161.00" routeLength="1674.47" waitingTime="0.00" waitingCount="0" stopTime="0.00" timeLoss="26.83" rerouteNo="1" devices="tripinfo_flow_0_out.1 routing_flow_0_out.1 fcd_flow_0_out.1" vType="car" speedFactor="1.03" vaporized=""/>
    <tripinfo id="flow_2_out.2" depart="23583.00" departLane="-27669895#0_0" departPos="5.10" departSpeed="12.87" departDelay="0.63" arrival="23770.00" arrivalLane="-687674681_0" arrivalPos="0.20" arrivalSpeed="10.29" duration="187.00" routeLength="1346.47" waitingTime="40.00" waitingCount="4" stopTime="0.00" timeLoss="76.65" rerouteNo="1" devices="tripinfo_flow_2_out.2 routing_flow_2_out.2 fcd_flow_2_out.2" vType="car" speedFactor="0.93" vaporized=""/>
    <tripinfo id="flow_2_out.3" depart="23674.00" departLane="-27669895#0_0" departPos="5.10" departSpeed="13.08" departDelay="0.45" arrival="23861.00" arrivalLane="-687674681_0" arrivalPos="0.20" arrivalSpeed="9.96" duration="187.00" routeLength="1346.47" waitingTime="38.00" waitingCount="4" stopTime="0.00" timeLoss="77.64" rerouteNo="1" devices="tripinfo_flow_2_out.3 routing_flow_2_out.3 fcd_flow_2_out.3" vType="car" speedFactor="0.94" vaporized=""/>
    <tripinfo id="flow_1_in.0" depart="23400.00" departLane="-687674693#1_0" departPos="0.20" departSpeed="5.45" departDelay="0.00" arrival="23878.00" arrivalLane="school_internal_in_0" arrivalPos="343.55" arrivalSpeed="1.36" duration="478.00" routeLength="1578.11" waitingTime="1.00" waitingCount="1" stopTime="45.00" timeLoss="97.87" rerouteNo="1" devices="tripinfo_flow_1_in.0 routing_flow_1_in.0 fcd_flow_1_in.0" vType="car" speedFactor="1.01" vaporized=""/>
    <tripinfo id="flow_0_out.2" depart="23743.00" departLane="-27669895#0_0" departPos="5.10" departSpeed="16.09" departDelay="0.14" arrival="23888.00" arrivalLane="-690833056#0_0" arrivalPos="10.76" arrivalSpeed="7.13" duration="145.00" routeLength="1674.47" waitingTime="0.00" waitingCount="0" stopTime="0.00" timeLoss="26.10" rerouteNo="1" devices="tripinfo_flow_0_out.2 routing_flow_0_out.2 fcd_flow_0_out.2" vType="car" speedFactor="1.16" vaporized=""/>
    <tripinfo id="flow_2_in.0" depart="23400.00" departLane="-687674681_0" departPos="0.20" departSpeed="14.31" departDelay="0.00" arrival="23892.00" arrivalLane="school_internal_in_0" arrivalPos="343.55" arrivalSpeed="1.22" duration="492.00" routeLength="1632.21" waitingTime="1.00" waitingCount="1" stopTime="45.00" timeLoss="112.03" rerouteNo="1" devices="tripinfo_flow_2_in.0 routing_flow_2_in.0 fcd_flow_2_in.0" vType="car" speedFactor="1.03" vaporized=""/>
    <tripinfo id="flow_3_in.0" depart="23400.00" departLane="27669864_0" departPos="0.20" departSpeed="4.12" departDelay="0.00" arrival="23900.00" arrivalLane="school_internal_in_0" arrivalPos="343.55" arrivalSpeed="1.19" duration="500.00" routeLength="1768.33" waitingTime="1.00" waitingCount="1" stopTime="45.00" timeLoss="117.12" rerouteNo="1" devices="tripinfo_flow_3_in.0 routing_flow_3_in.0 fcd_flow_3_in.0" vType="car" speedFactor="1.05" vaporized=""/>
    <tripinfo id="flow_1_out.2" depart="23744.00" departLane="-27669895#0_0" departPos="5.10" departSpeed="13.62" departDelay="1.14" arrival="23900.00" arrivalLane="-687674693#1_0" arrivalPos="0.20" arrivalSpeed="2.97" duration="156.00" routeLength="1571.10" waitingTime="4.00" waitingCount="2" stopTime="0.00" timeLoss="40.54" rerouteNo="1" devices="tripinfo_flow_1_out.2 routing_flow_1_out.2 fcd_flow_1_out.2" vType="car" speedFactor="1.01" vaporized=""/>
    <tripinfo id="flow_0_in.0" depart="23400.00" departLane="-690833056#0_0" departPos="5.10" departSpeed="14.72" departDelay="0.00" arrival="23911.00" arrivalLane="school_internal_in_0" arrivalPos="343.55" arrivalSpeed="0.82" duration="511.00" routeLength="1996.38" waitingTime="0.00" waitingCount="0" stopTime="45.00" timeLoss="115.68" rerouteNo="1" devices="tripinfo_flow_0_in.0 routing_flow_0_in.0 fcd_flow_0_in.0" vType="car" speedFactor="1.06" vaporized=""/>
    <tripinfo id="flow_2_out.4" depart="23765.00" departLane="-27669895#0_0" departPos="5.10" departSpeed="12.36" departDelay="0.26" arrival="23952.00" arrivalLane="-687674681_0" arrivalPos="0.20" arrivalSpeed="9.99" duration="187.00" routeLength="1346.47" waitingTime="31.00" waitingCount="4" stopTime="0.00" timeLoss="71.14" rerouteNo="1" devices="tripinfo_flow_2_out.4 routing_flow_2_out.4 fcd_flow_2_out.4" vType="car" speedFactor="0.89" vaporized=""/>
    <tripinfo id="flow_2_in.1" depart="23492.00" departLane="-687674681_0" departPos="0.20" departSpeed="13.03" departDelay="0.82" arrival="24018.00" arrivalLane="school_internal_in_0" arrivalPos="343.55" arrivalSpeed="1.15" duration="526.00" routeLength="1632.21" waitingTime="1.00" waitingCount="1" stopTime="45.00" timeLoss="112.27" rerouteNo="1" devices="tripinfo_flow_2_in.1 routing_flow_2_in.1 fcd_flow_2_in.1" vType="car" speedFactor="0.94" vaporized=""/>
    <tripinfo id="flow_1_in.1" depart="23572.00" departLane="-687674693#1_0" departPos="0.20" departSpeed="5.45" departDelay="0.57" arrival="24043.00" arrivalLane="school_internal_in_0" arrivalPos="343.55" arrivalSpeed="1.21" duration="471.00" routeLength="1578.11" waitingTime="1.00" waitingCount="1" stopTime="45.00" timeLoss="101.23" rerouteNo="1" devices="tripinfo_flow_1_in.1 routing_flow_1_in.1 fcd_flow_1_in.1" vType="car" speedFactor="1.05" vaporized=""/>
    <tripinfo id="flow_2_out.5" depart="23856.00" departLane="-27669895#0_0" departPos="5.10" departSpeed="12.12" departDelay="0.08" arrival="24043.00" arrivalLane="-687674681_0" arrivalPos="0.20" arrivalSpeed="10.97" duration="187.00" routeLength="1346.47" waitingTime="32.00" waitingCount="4" stopTime="0.00" timeLoss="68.82" rerouteNo="1" devices="tripinfo_flow_2_out.5 routing_flow_2_out.5 fcd_flow_2_out.5" vType="car" speedFactor="0.87" vaporized=""/>
    <tripinfo id="flow_0_in.1" depart="23574.00" departLane="-690833056#0_0" departPos="5.10" departSpeed="15.15" departDelay="2.57" arrival="24054.00" arrivalLane="school_internal_in_0" arrivalPos="343.55" arrivalSpeed="1.19" duration="480.00" routeLength="1996.38" waitingTime="0.00" waitingCount="0" stopTime="45.00" timeLoss="95.48" rerouteNo="1" devices="tripinfo_flow_0_in.1 routing_flow_0_in.1 fcd_flow_0_in.1" vType="car" speedFactor="1.09" vaporized=""/>
    <tripinfo id="flow_1_out.3" depart="23916.00" departLane="-27669895#0_0" departPos="5.10" departSpeed="9.91" departDelay="1.71" arrival="24073.00" arrivalLane="-687674693#1_0" arrivalPos="0.20" arrivalSpeed="2.20" duration="157.00" routeLength="1571.10" waitingTime="1.00" waitingCount="1" stopTime="0.00" timeLoss="32.59" rerouteNo="1" devices="tripinfo_flow_1_out.3 routing_flow_1_out.3 fcd_flow_1_out.3" vType="car" speedFactor="0.93" vaporized=""/>
    <tripinfo id="flow_2_in.2" depart="23583.00" departLane="-687674681_0" departPos="0.20" departSpeed="13.77" departDelay="0.63" arrival="24085.00" arrivalLane="school_internal_in_0" arrivalPos="343.55" arrivalSpeed="1.14" duration="502.00" routeLength="1705.26" waitingTime="1.00" waitingCount="1" stopTime="45.00" timeLoss="101.79" rerouteNo="1" devices="tripinfo_flow_2_in.2 routing_flow_2_in.2 fcd_flow_2_in.2" vType="car" speedFactor="0.99" vaporized=""/>
    <tripinfo id="flow_0_out.3" depart="23915.00" departLane="-27669895#0_0" departPos="5.10" departSpeed="13.18" departDelay="0.71" arrival="24087.00" arrivalLane="-690833056#0_0" arrivalPos="10.76" arrivalSpeed="7.42" duration="172.00" routeLength="1674.47" waitingTime="0.00" waitingCount="0" stopTime="0.00" timeLoss="27.42" rerouteNo="1" devices="tripinfo_flow_0_out.3 routing_flow_0_out.3 fcd_flow_0_out.3" vType="car" speedFactor="0.95" vaporized=""/>
    <tripinfo id="flow_2_out.6" depart="23948.00" departLane="-27669895#0_0" departPos="5.10" departSpeed="16.03" departDelay="0.89" arrival="24124.00" arrivalLane="-687674681_0" arrivalPos="0.20" arrivalSpeed="8.27" duration="176.00" routeLength="1338.63" waitingTime="46.00" waitingCount="3" stopTime="0.00" timeLoss="87.53" rerouteNo="1" devices="tripinfo_flow_2_out.6 routing_flow_2_out.6 fcd_flow_2_out.6" vType="car" speedFactor="1.15" vaporized=""/>
    <tripinfo id="flow_2_out.7" depart="24039.00" departLane="-27669895#0_0" departPos="5.10" departSpeed="16.28" departDelay="0.71" arrival="24220.00" arrivalLane="-687674681_0" arrivalPos="0.20" arrivalSpeed="9.70" duration="181.00" routeLength="1338.63" waitingTime="48.00" waitingCount="3" stopTime="0.00" timeLoss="93.38" rerouteNo="1" devices="tripinfo_flow_2_out.7 routing_flow_2_out.7 fcd_flow_2_out.7" vType="car" speedFactor="1.17" vaporized=""/>
    <tripinfo id="flow_1_out.4" depart="24087.00" departLane="-27669895#0_0" departPos="5.10" departSpeed="10.42" departDelay="1.28" arrival="24226.00" arrivalLane="-687674693#1_0" arrivalPos="0.20" arrivalSpeed="3.09" duration="139.00" routeLength="1571.10" waitingTime="1.00" waitingCount="1" stopTime="0.00" timeLoss="37.24" rerouteNo="1" devices="tripinfo_flow_1_out.4 routing_flow_1_out.4 fcd_flow_1_out.4" vType="car" speedFactor="1.18" vaporized=""/>
    <tripinfo id="flow_2_in.3" depart="23674.00" departLane="-687674681_0" departPos="0.20" departSpeed="12.20" departDelay="0.45" arrival="24234.00" arrivalLane="school_internal_in_0" arrivalPos="343.55" arrivalSpeed="0.88" duration="560.00" routeLength="1632.21" waitingTime="1.00" waitingCount="1" stopTime="45.00" timeLoss="120.90" rerouteNo="1" devices="tripinfo_flow_2_in.3 routing_flow_2_in.3 fcd_flow_2_in.3" vType="car" speedFactor="0.88" vaporized=""/>
    <tripinfo id="flow_1_in.2" depart="23743.00" departLane="-687674693#1_0" departPos="0.20" departSpeed="5.45" departDelay="0.14" arrival="24243.00" arrivalLane="school_internal_in_0" arrivalPos="343.55" arrivalSpeed="1.00" duration="500.00" routeLength="1578.11" waitingTime="1.00" waitingCount="1" stopTime="45.00" timeLoss="122.06" rerouteNo="1" devices="tripinfo_flow_1_in.2 routing_flow_1_in.2 fcd_flow_1_in.2" vType="car" speedFactor="1.02" vaporized=""/>
    <tripinfo id="flow_0_out.4" depart="24086.00" departLane="-27669895#0_0" departPos="5.10" departSpeed="14.16" departDelay="0.28" arrival="24247.00" arrivalLane="-690833056#0_0" arrivalPos="10.76" arrivalSpeed="9.18" duration="161.00" routeLength="1674.47" waitingTime="0.00" waitingCount="0" stopTime="0.00" timeLoss="26.50" rerouteNo="1" devices="tripinfo_flow_0_out.4 routing_flow_0_out.4 fcd_flow_0_out.4" vType="car" speedFactor="1.02" vaporized=""/>
    <tripinfo id="flow_2_in.4" depart="23765.00" departLane="-687674681_0" departPos="0.20" departSpeed="13.54" departDelay="0.26" arrival="24279.00" arrivalLane="school_internal_in_0" arrivalPos="343.55" arrivalSpeed="1.21" duration="514.00" routeLength="1705.26" waitingTime="1.00" waitingCount="1" stopTime="45.00" timeLoss="109.32" rerouteNo="1" devices="tripinfo_flow_2_in.4 routing_flow_2_in.4 fcd_flow_2_in.4" vType="car" speedFactor="0.97" vaporized=""/>
    <tripinfo id="flow_0_in.2" depart="23743.00" departLane="-690833056#0_0" departPos="5.10" departSpeed="13.00" departDelay="0.14" arrival="24297.00" arrivalLane="school_internal_in_0" arrivalPos="343.55" arrivalSpeed="1.01" duration="554.00" routeLength="1996.38" waitingTime="5.00" waitingCount="1" stopTime="45.00" timeLoss="112.32" rerouteNo="1" devices="tripinfo_flow_0_in.2 routing_flow_0_in.2 fcd_flow_0_in.2" vType="car" speedFactor="0.94" vaporized=""/>
    <tripinfo id="flow_2_out.8" depart="24130.00" departLane="-27669895#0_0" departPos="5.10" departSpeed="12.51" departDelay="0.52" arrival="24311.00" arrivalLane="-687674681_0" arrivalPos="0.20" arrivalSpeed="10.69" duration="181.00" routeLength="1346.47" waitingTime="30.00" waitingCount="4" stopTime="0.00" timeLoss="66.73" rerouteNo="1" devices="tripinfo_flow_2_out.8 routing_flow_2_out.8 fcd_flow_2_out.8" vType="car" speedFactor="0.90" vaporized=""/>
    <tripinfo id="flow_2_out.9" depart="24221.00" departLane="-27669895#0_0" departPos="5.10" departSpeed="13.29" departDelay="0.34" arrival="24401.00" arrivalLane="-687674681_0" arrivalPos="0.20" arrivalSpeed="10.41" duration="180.00" routeLength="1346.47" waitingTime="35.00" waitingCount="4" stopTime="0.00" timeLoss="72.29" rerouteNo="1" devices="tripinfo_flow_2_out.9 routing_flow_2_out.9 fcd_flow_2_out.9" vType="car" speedFactor="0.96" vaporized=""/>
    <tripinfo id="flow_1_out.5" depart="24259.00" departLane="-27669895#0_0" departPos="5.10" departSpeed="11.93" departDelay="1.86" arrival="24402.00" arrivalLane="-687674693#1_0" arrivalPos="0.20" arrivalSpeed="3.68" duration="143.00" routeLength="1571.10" waitingTime="1.00" waitingCount="1" stopTime="0.00" timeLoss="33.99" rerouteNo="1" devices="tripinfo_flow_1_out.5 routing_flow_1_out.5 fcd_flow_1_out.5" vType="car" speedFactor="1.09" vaporized=""/>
    <tripinfo id="flow_0_out.5" depart="24258.00" departLane="-27669895#0_0" departPos="5.10" departSpeed="14.42" departDelay="0.86" arrival="24419.00" arrivalLane="-690833056#0_0" arrivalPos="10.76" arrivalSpeed="8.67" duration="161.00" routeLength="1674.47" waitingTime="0.00" waitingCount="0" stopTime="0.00" timeLoss="28.15" rerouteNo="1" devices="tripinfo_flow_0_out.5 routing_flow_0_out.5 fcd_flow_0_out.5" vType="car" speedFactor="1.04" vaporized=""/>
    <tripinfo id="flow_2_in.5" depart="23856.00" departLane="-687674681_0" departPos="0.20" departSpeed="11.47" departDelay="0.08" arrival="24436.00" arrivalLane="school_internal_in_0" arrivalPos="343.55" arrivalSpeed="0.88" duration="580.00" routeLength="1632.21" waitingTime="1.00" waitingCount="1" stopTime="45.00" timeLoss="117.46" rerouteNo="1" devices="tripinfo_flow_2_in.5 routing_flow_2_in.5 fcd_flow_2_in.5" vType="car" speedFactor="0.83" vaporized=""/>
    <tripinfo id="flow_1_in.3" depart="23915.00" departLane="-687674693#1_0" departPos="0.20" departSpeed="5.45" departDelay="0.71" arrival="24444.00" arrivalLane="school_internal_in_0" arrivalPos="343.55" arrivalSpeed="1.29" duration="529.00" routeLength="1578.11" waitingTime="2.00" waitingCount="2" stopTime="45.00" timeLoss="183.20" rerouteNo="1" devices="tripinfo_flow_1_in.3 routing_flow_1_in.3 fcd_flow_1_in.3" vType="car" speedFactor="1.13" vaporized=""/>
    <tripinfo id="flow_2_in.6" depart="23948.00" departLane="-687674681_0" departPos="0.20" departSpeed="16.37" departDelay="0.89" arrival="24451.00" arrivalLane="school_internal_in_0" arrivalPos="343.55" arrivalSpeed="1.21" duration="503.00" routeLength="1705.26" waitingTime="1.00" waitingCount="1" stopTime="45.00" timeLoss="159.90" rerouteNo="1" devices="tripinfo_flow_2_in.6 routing_flow_2_in.6 fcd_flow_2_in.6" vType="car" speedFactor="1.18" vaporized=""/>
    <tripinfo id="flow_0_in.3" depart="23915.00" departLane="-690833056#0_0" departPos="5.10" departSpeed="12.74" departDelay="0.71" arrival="24464.00" arrivalLane="school_internal_in_0" arrivalPos="343.55" arrivalSpeed="0.73" duration="549.00" routeLength="1996.38" waitingTime="0.00" waitingCount="0" stopTime="45.00" timeLoss="99.93" rerouteNo="1" devices="tripinfo_flow_0_in.3 routing_flow_0_in.3 fcd_flow_0_in.3" vType="car" speedFactor="0.92" vaporized=""/>
    <tripinfo id="flow_2_out.10" depart="24312.00" departLane="-27669895#0_0" departPos="5.10" departSpeed="12.51" departDelay="0.15" arrival="24492.00" arrivalLane="-687674681_0" arrivalPos="0.20" arrivalSpeed="10.63" duration="180.00" routeLength="1346.47" waitingTime="29.00" waitingCount="4" stopTime="0.00" timeLoss="65.23" rerouteNo="1" devices="tripinfo_flow_2_out.10 routing_flow_2_out.10 fcd_flow_2_out.10" vType="car" speedFactor="0.90" vaporized=""/>
    <tripinfo id="flow_2_in.7" depart="24039.00" departLane="-687674681_0" departPos="0.20" departSpeed="13.96" departDelay="0.71" arrival="24530.00" arrivalLane="school_internal_in_0" arrivalPos="343.55" arrivalSpeed="1.07" duration="491.00" routeLength="1705.26" waitingTime="1.00" waitingCount="1" stopTime="45.00" timeLoss="97.16" rerouteNo="1" devices="tripinfo_flow_2_in.7 routing_flow_2_in.7 fcd_flow_2_in.7" vType="car" speedFactor="1.01" vaporized=""/>
    <tripinfo id="flow_0_out.6" depart="24429.00" departLane="-27669895#0_0" departPos="5.10" departSpeed="16.24" departDelay="0.43" arrival="24573.00" arrivalLane="-690833056#0_0" arrivalPos="10.76" arrivalSpeed="8.35" duration="144.00" routeLength="1674.47" waitingTime="0.00" waitingCount="0" stopTime="0.00" timeLoss="26.42" rerouteNo="1" devices="tripinfo_flow_0_out.6 routing_flow_0_out.6 fcd_flow_0_out.6" vType="car" speedFactor="1.17" vaporized=""/>
    <tripinfo id="flow_1_out.6" depart="24430.00" departLane="-27669895#0_0" departPos="5.10" departSpeed="13.10" departDelay="1.43" arrival="24576.00" arrivalLane="-687674693#1_0" arrivalPos="0.20" arrivalSpeed="2.84" duration="146.00" routeLength="1571.10" waitingTime="5.00" waitingCount="1" stopTime="0.00" timeLoss="38.55" rerouteNo="1" devices="tripinfo_flow_1_out.6 routing_flow_1_out.6 fcd_flow_1_out.6" vType="car" speedFactor="1.10" vaporized=""/>
    <tripinfo id="flow_2_out.11" depart="24404.00" departLane="-27669895#0_0" departPos="5.10" departSpeed="11.81" departDelay="0.97" arrival="24583.00" arrivalLane="-687674681_0" arrivalPos="0.20" arrivalSpeed="9.40" duration="179.00" routeLength="1346.47" waitingTime="20.00" waitingCount="4" stopTime="0.00" timeLoss="58.17" rerouteNo="1" devices="tripinfo_flow_2_out.11 routing_flow_2_out.11 fcd_flow_2_out.11" vType="car" speedFactor="0.85" vaporized=""/>
    <tripinfo id="flow_1_in.4" depart="24086.00" departLane="-687674693#1_0" departPos="0.20" departSpeed="5.45" departDelay="0.28" arrival="24584.00" arrivalLane="school_internal_in_0" arrivalPos="343.55" arrivalSpeed="1.34" duration="498.00" routeLength="1578.11" waitingTime="1.00" waitingCount="1" stopTime="45.00" timeLoss="106.47" rerouteNo="1" devices="tripinfo_flow_1_in.4 routing_flow_1_in.4 fcd_flow_1_in.4" vType="car" speedFactor="0.97" vaporized=""/>
    <tripinfo id="flow_0_in.4" depart="24087.00" departLane="-690833056#0_0" departPos="5.10" departSpeed="13.82" departDelay="1.28" arrival="24601.00" arrivalLane="school_internal_in_0" arrivalPos="343.55" arrivalSpeed="1.02" duration="514.00" routeLength="1996.38" waitingTime="1.00" waitingCount="1" stopTime="45.00" timeLoss="97.01" rerouteNo="1" devices="tripinfo_flow_0_in.4 routing_flow_0_in.4 fcd_flow_0_in.4" vType="car" speedFactor="0.99" vaporized=""/>
    <tripinfo id="flow_2_in.8" depart="24130.00" departLane="-687674681_0" departPos="0.20" departSpeed="15.31" departDelay="0.52" arrival="24609.00" arrivalLane="school_internal_in_0" arrivalPos="343.55" arrivalSpeed="0.78" duration="479.00" routeLength="1705.26" waitingTime="2.00" waitingCount="2" stopTime="45.00" timeLoss="116.29" rerouteNo="1" devices="tripinfo_flow_2_in.8 routing_flow_2_in.8 fcd_flow_2_in.8" vType="car" speedFactor="1.10" vaporized=""/>
    <tripinfo id="flow_2_out.12" depart="24495.00" departLane="-27669895#0_0" departPos="5.10" departSpeed="13.83" departDelay="0.78" arrival="24671.00" arrivalLane="-687674681_0" arrivalPos="0.20" arrivalSpeed="10.37" duration="176.00" routeLength="1338.63" waitingTime="33.00" waitingCount="3" stopTime="0.00" timeLoss="72.48" rerouteNo="1" devices="tripinfo_flow_2_out.12 routing_flow_2_out.12 fcd_flow_2_out.12" vType="car" speedFactor="1.00" vaporized=""/>
    <tripinfo id="flow_2_in.9" depart="24221.00" departLane="-687674681_0" departPos="0.20" departSpeed="14.31" departDelay="0.34" arrival="24710.00" arrivalLane="school_internal_in_0" arrivalPos="343.55" arrivalSpeed="0.77" duration="489.00" routeLength="1632.21" waitingTime="2.00" waitingCount="2" stopTime="45.00" timeLoss="108.73" rerouteNo="1" devices="tripinfo_flow_2_in.9 routing_flow_2_in.9 fcd_flow_2_in.9" vType="car" speedFactor="1.03" vaporized=""/>
    <tripinfo id="flow_1_in.5" depart="24258.00" departLane="-687674693#1_0" departPos="0.20" departSpeed="5.45" departDelay="0.86" arrival="24731.00" arrivalLane="school_internal_in_0" arrivalPos="343.55" arrivalSpeed="1.36" duration="473.00" routeLength="1578.11" waitingTime="1.00" waitingCount="1" stopTime="45.00" timeLoss="103.91" rerouteNo="1" devices="tripinfo_flow_1_in.5 routing_flow_1_in.5 fcd_flow_1_in.5" vType="car" speedFactor="1.04" vaporized=""/>
    <tripinfo id="flow_0_in.5" depart="24258.00" departLane="-690833056#0_0" departPos="5.10" departSpeed="15.17" departDelay="0.86" arrival="24739.00" arrivalLane="school_internal_in_0" arrivalPos="343.55" arrivalSpeed="1.38" duration="481.00" routeLength="1996.38" waitingTime="0.00" waitingCount="0" stopTime="45.00" timeLoss="96.71" rerouteNo="1" devices="tripinfo_flow_0_in.5 routing_flow_0_in.5 fcd_flow_0_in.5" vType="car" speedFactor="1.09" vaporized=""/>
    <tripinfo id="flow_1_out.7" depart="24602.00" departLane="-27669895#0_0" departPos="5.10" departSpeed="10.47" departDelay="2.00" arrival="24754.00" arrivalLane="-687674693#1_0" arrivalPos="0.20" arrivalSpeed="3.79" duration="152.00" routeLength="1571.10" waitingTime="4.00" waitingCount="2" stopTime="0.00" timeLoss="45.82" rerouteNo="1" devices="tripinfo_flow_1_out.7 routing_flow_1_out.7 fcd_flow_1_out.7" vType="car" speedFactor="1.12" vaporized=""/>
    <tripinfo id="flow_2_out.13" depart="24586.00" departLane="-27669895#0_0" departPos="5.10" departSpeed="15.87" departDelay="0.60" arrival="24760.00" arrivalLane="-687674681_0" arrivalPos="0.20" arrivalSpeed="9.14" duration="174.00" routeLength="1338.63" waitingTime="42.00" waitingCount="3" stopTime="0.00" timeLoss="84.77" rerouteNo="1" devices="tripinfo_flow_2_out.13 routing_flow_2_out.13 fcd_flow_2_out.13" vType="car" speedFactor="1.14" vaporized=""/>
    <tripinfo id="flow_0_out.7" depart="24601.00" departLane="-27669895#0_0" departPos="5.10" departSpeed="13.47" departDelay="1.00" arrival="24771.00" arrivalLane="-690833056#0_0" arrivalPos="10.76" arrivalSpeed="8.41" duration="170.00" routeLength="1674.47" waitingTime="0.00" waitingCount="0" stopTime="0.00" timeLoss="28.08" rerouteNo="1" devices="tripinfo_flow_0_out.7 routing_flow_0_out.7 fcd_flow_0_out.7" vType="car" speedFactor="0.97" vaporized=""/>
    <tripinfo id="flow_2_in.10" depart="24312.00" departLane="-687674681_0" departPos="0.20" departSpeed="13.85" departDelay="0.15" arrival="24813.00" arrivalLane="school_internal_in_0" arrivalPos="343.55" arrivalSpeed="0.98" duration="501.00" routeLength="1705.26" waitingTime="1.00" waitingCount="1" stopTime="45.00" timeLoss="103.73" rerouteNo="1" devices="tripinfo_flow_2_in.10 routing_flow_2_in.10 fcd_flow_2_in.10" vType="car" speedFactor="1.00" vaporized=""/>
    <tripinfo id="flow_2_out.14" depart="24677.00" departLane="-27669895#0_0" departPos="5.10" departSpeed="13.71" departDelay="0.41" arrival="24851.00" arrivalLane="-687674681_0" arrivalPos="0.20" arrivalSpeed="10.59" duration="174.00" routeLength="1346.47" waitingTime="26.00" waitingCount="4" stopTime="0.00" timeLoss="70.53" rerouteNo="1" devices="tripinfo_flow_2_out.14 routing_flow_2_out.14 fcd_flow_2_out.14" vType="car" speedFactor="0.99" vaporized=""/>
    <tripinfo id="flow_1_out.8" depart="24773.00" departLane="-27669895#0_0" departPos="5.10" departSpeed="9.74" departDelay="1.57" arrival="24924.00" arrivalLane="-687674693#1_0" arrivalPos="0.20" arrivalSpeed="3.26" duration="151.00" routeLength="1571.10" waitingTime="1.00" waitingCount="1" stopTime="0.00" timeLoss="34.57" rerouteNo="1" devices="tripinfo_flow_1_out.8 routing_flow_1_out.8 fcd_flow_1_out.8" vType="car" speedFactor="1.02" vaporized=""/>
    <tripinfo id="flow_2_out.15" depart="24768.00" departLane="-27669895#0_0" departPos="5.10" departSpeed="12.26" departDelay="0.23" arrival="24943.00" arrivalLane="-687674681_0" arrivalPos="0.20" arrivalSpeed="10.05" duration="175.00" routeLength="1346.47" waitingTime="20.00" waitingCount="4" stopTime="0.00" timeLoss="58.36" rerouteNo="1" devices="tripinfo_flow_2_out.15 routing_flow_2_out.15 fcd_flow_2_out.15" vType="car" speedFactor="0.88" vaporized=""/>
    <tripinfo id="flow_0_out.8" depart="24772.00" departLane="-27669895#0_0" departPos="5.10" departSpeed="12.70" departDelay="0.57" arrival="24953.00" arrivalLane="-690833056#0_0" arrivalPos="10.76" arrivalSpeed="8.67" duration="181.00" routeLength="1674.47" waitingTime="0.00" waitingCount="0" stopTime="0.00" timeLoss="30.25" rerouteNo="1" devices="tripinfo_flow_0_out.8 routing_flow_0_out.8 fcd_flow_0_out.8" vType="car" speedFactor="0.91" vaporized=""/>
    <tripinfo id="flow_2_in.11" depart="24404.00" departLane="-687674681_0" departPos="0.20" departSpeed="12.18" departDelay="0.97" arrival="24962.00" arrivalLane="school_internal_in_0" arrivalPos="343.55" arrivalSpeed="0.92" duration="558.00" routeLength="1632.21" waitingTime="2.00" waitingCount="2" stopTime="45.00" timeLoss="118.15" rerouteNo="1" devices="tripinfo_flow_2_in.11 routing_flow_2_in.11 fcd_flow_2_in.11" vType="car" speedFactor="0.88" vaporized=""/>
    <tripinfo id="flow_1_in.6" depart="24429.00" departLane="-687674693#1_0" departPos="0.20" departSpeed="5.45" departDelay="0.43" arrival="24971.00" arrivalLane="school_internal_in_0" arrivalPos="343.55" arrivalSpeed="0.81" duration="542.00" routeLength="1578.11" waitingTime="1.00" waitingCount="1" stopTime="45.00" timeLoss="162.90" rerouteNo="1" devices="tripinfo_flow_1_in.6 routing_flow_1_in.6 fcd_flow_1_in.6" vType="car" speedFactor="1.02" vaporized=""/>