<?xml version="1.0" encoding="UTF-8"?>

<!-- generated on 2026-04-01T17:02:39.539313+02:00 by Eclipse SUMO sumo 1.26.0
<sumoConfiguration xmlns:xsi="http://www.w3.org/2001/XMLSchema-instance" xsi:noNamespaceSchemaLocation="http://sumo.dlr.de/xsd/sumoConfiguration.xsd">

    <input>
        <net-file value="C:\Users\neill\Github\tokai-sim\sim\sumo\bergvliet.net.xml"/>
        <route-files value="C:\Users\neill\Github\tokai-sim\sim\sumo\demand-L.rou.xml"/>
        <additional-files value="C:\Users\neill\Github\tokai-sim\sim\sumo\speed-humps.add.xml"/>
    </input>

    <output>
        <fcd-output value="C:\Users\neill\Github\tokai-sim\sim\sumo\fcd-L.xml"/>
        <tripinfo-output value="C:\Users\neill\Github\tokai-sim\sim\sumo\tripinfo-L.xml"/>
    </output>

    <time>
        <begin value="23400"/>
        <end value="30600"/>
        <step-length value="1"/>
    </time>

    <processing>
        <ignore-route-errors value="true"/>
    </processing>

    <routing>
        <routing-algorithm value="astar"/>
        <device.rerouting.probability value="1.0"/>
        <device.rerouting.period value="60"/>
        <device.rerouting.pre-period value="0"/>
    </routing>

    <report>
        <no-warnings value="true"/>
        <no-step-log value="true"/>
    </report>

    <fcd_device>
        <device.fcd.period value="60"/>
    </fcd_device>

</sumoConfiguration>
-->

<tripinfos xmlns:xsi="http://www.w3.org/2001/XMLSchema-instance" xsi:noNamespaceSchemaLocation="http://sumo.dlr.de/xsd/tripinfo_file.xsd">
    <tripinfo id="flow_5_in.0" depart="23400.00" departLane="-687674693#1_0" departPos="0.20" departSpeed="5.45" departDelay="0.00" arrival="24056.00" arrivalLane="-687674693#1_0" arrivalPos="0.20" arrivalSpeed="2.90" duration="656.00" routeLength="3023.04" waitingTime="2.00" waitingCount="2" stopTime="45.00" timeLoss="135.88" rerouteNo="1" devices="tripinfo_flow_5_in.0 routing_flow_5_in.0 fcd_flow_5_in.0" vType="car" speedFactor="0.94" vaporized=""/>
    <tripinfo id="flow_10_in.0" depart="23400.00" departLane="-687674681_0" departPos="0.20" departSpeed="14.03" departDelay="0.00" arrival="24061.00" arrivalLane="-687674681_0" arrivalPos="0.20" arrivalSpeed="10.50" duration="661.00" routeLength="2925.56" waitingTime="5.00" waitingCount="5" stopTime="45.00" timeLoss="174.54" rerouteNo="1" devices="tripinfo_flow_10_in.0 routing_flow_10_in.0 fcd_flow_10_in.0" vType="car" speedFactor="1.01" vaporized=""/>
    <tripinfo id="flow_0_in.0" depart="23400.00" departLane="-690833056#0_0" departPos="5.10" departSpeed="14.72" departDelay="0.00" arrival="24083.00" arrivalLane="-690833056#0_0" arrivalPos="10.76" arrivalSpeed="8.64" duration="683.00" routeLength="3544.68" waitingTime="10.00" waitingCount="1" stopTime="45.00" timeLoss="167.65" rerouteNo="1" devices="tripinfo_flow_0_in.0 routing_flow_0_in.0 fcd_flow_0_in.0" vType="car" speedFactor="1.06" vaporized=""/>
    <tripinfo id="flow_15_in.0" depart="23400.00" departLane="27669864_0" departPos="0.20" departSpeed="4.12" departDelay="0.00" arrival="24090.00" arrivalLane="27669864_0" arrivalPos="0.20" arrivalSpeed="2.90" duration="690.00" routeLength="3692.58" waitingTime="2.00" waitingCount="2" stopTime="45.00" timeLoss="188.71" rerouteNo="1" devices="tripinfo_flow_15_in.0 routing_flow_15_in.0 fcd_flow_15_in.0" vType="car" speedFactor="1.08" vaporized=""/>
    <tripinfo id="flow_10_in.1" depart="23523.00" departLane="-687674681_0" departPos="0.20" departSpeed="14.31" departDelay="0.55" arrival="24134.00" arrivalLane="-687674681_0" arrivalPos="0.20" arrivalSpeed="9.15" duration="611.00" routeLength="2852.51" waitingTime="4.00" waitingCount="4" stopTime="45.00" timeLoss="141.09" rerouteNo="1" devices="tripinfo_flow_10_in.1 routing_flow_10_in.1 fcd_flow_10_in.1" vType="car" speedFactor="1.03" vaporized=""/>
    <tripinfo id="flow_15_in.1" depart="23605.00" departLane="27669864_0" departPos="0.20" departSpeed="4.12" departDelay="0.92" arrival="24253.00" arrivalLane="27669864_0" arrivalPos="0.20" arrivalSpeed="3.57" duration="648.00" routeLength="3692.58" waitingTime="3.00" waitingCount="3" stopTime="45.00" timeLoss="132.37" rerouteNo="1" devices="tripinfo_flow_15_in.1 routing_flow_15_in.1 fcd_flow_15_in.1" vType="car" speedFactor="1.05" vaporized=""/>
    <tripinfo id="flow_10_in.2" depart="23645.00" departLane="-687674681_0" departPos="0.20" departSpeed="0.00" departDelay="0.10" arrival="24339.00" arrivalLane="-687674681_0" arrivalPos="0.20" arrivalSpeed="10.95" duration="694.00" routeLength="2852.51" waitingTime="28.00" waitingCount="5" stopTime="45.00" timeLoss="180.44" rerouteNo="1" devices="tripinfo_flow_10_in.2 routing_flow_10_in.2 fcd_flow_10_in.2" vType="car" speedFactor="0.94" vaporized=""/>
    <tripinfo id="flow_5_in.1" depart="23615.00" departLane="-687674693#1_0" departPos="0.20" departSpeed="5.45" departDelay="0.71" arrival="24342.00" arrivalLane="-687674693#1_0" arrivalPos="0.20" arrivalSpeed="2.66" duration="727.00" routeLength="3023.04" waitingTime="2.00" waitingCount="2" stopTime="45.00" timeLoss="180.68" rerouteNo="1" devices="tripinfo_flow_5_in.1 routing_flow_5_in.1 fcd_flow_5_in.1" vType="car" speedFactor="0.89" vaporized=""/>
    <tripinfo id="flow_0_in.1" depart="23579.00" departLane="-690833056#0_0" departPos="5.10" departSpeed="11.54" departDelay="0.43" arrival="24367.00" arrivalLane="-690833056#0_0" arrivalPos="10.76" arrivalSpeed="9.99" duration="788.00" routeLength="3544.68" waitingTime="0.00" waitingCount="0" stopTime="45.00" timeLoss="143.93" rerouteNo="1" devices="tripinfo_flow_0_in.1 routing_flow_0_in.1 fcd_flow_0_in.1" vType="car" speedFactor="0.83" vaporized=""/>
    <tripinfo id="flow_10_in.3" depart="23768.00" departLane="-687674681_0" departPos="0.20" departSpeed="15.15" departDelay="0.65" arrival="24401.00" arrivalLane="-687674681_0" arrivalPos="0.20" arrivalSpeed="10.62" duration="633.00" routeLength="2925.56" waitingTime="47.00" waitingCount="5" stopTime="45.00" timeLoss="179.90" rerouteNo="1" devices="tripinfo_flow_10_in.3 routing_flow_10_in.3 fcd_flow_10_in.3" vType="car" speedFactor="1.09" vaporized=""/>
    <tripinfo id="flow_5_in.2" depart="23829.00" departLane="-687674693#1_0" departPos="0.20" departSpeed="5.45" departDelay="0.43" arrival="24501.00" arrivalLane="-687674693#1_0" arrivalPos="0.20" arrivalSpeed="3.42" duration="672.00" routeLength="3023.04" waitingTime="3.00" waitingCount="3" stopTime="45.00" timeLoss="201.34" rerouteNo="1" devices="tripinfo_flow_5_in.2 routing_flow_5_in.2 fcd_flow_5_in.2" vType="car" speedFactor="1.05" vaporized=""/>
    <tripinfo id="flow_10_in.4" depart="23890.00" departLane="-687674681_0" departPos="0.20" departSpeed="0.00" departDelay="0.20" arrival="24516.00" arrivalLane="-687674681_0" arrivalPos="0.20" arrivalSpeed="10.30" duration="626.00" routeLength="2925.56" waitingTime="53.00" waitingCount="5" stopTime="45.00" timeLoss="185.26" rerouteNo="1" devices="tripinfo_flow_10_in.4 routing_flow_10_in.4 fcd_flow_10_in.4" vType="car" speedFactor="1.12" vaporized=""/>
    <tripinfo id="flow_15_in.2" depart="23809.00" departLane="27669864_0" departPos="0.20" departSpeed="4.12" departDelay="0.84" arrival="24524.00" arrivalLane="27669864_0" arrivalPos="0.20" arrivalSpeed="3.52" duration="715.00" routeLength="3692.58" waitingTime="3.00" waitingCount="3" stopTime="45.00" timeLoss="194.20" rerouteNo="1" devices="tripinfo_flow_15_in.2 routing_flow_15_in.2 fcd_flow_15_in.2" vType="car" speedFactor="1.03" vaporized=""/>
    <tripinfo id="flow_0_in.2" depart="23758.00" departLane="-690833056#0_0" departPos="5.10" departSpeed="11.90" departDelay="0.86" arrival="24529.00" arrivalLane="-690833056#0_0" arrivalPos="10.76" arrivalSpeed="6.75" duration="771.00" routeLength="3544.68" waitingTime="0.00" waitingCount="0" stopTime="45.00" timeLoss="145.84" rerouteNo="1" devices="tripinfo_flow_0_in.2 routing_flow_0_in.2 fcd_flow_0_in.2" vType="car" speedFactor="0.86" vaporized=""/>
    <tripinfo id="flow_0_in.3" depart="23936.00" departLane="-690833056#0_0" departPos="5.10" departSpeed="13.77" departDelay="0.29" arrival="24608.00" arrivalLane="-690833056#0_0" arrivalPos="10.76" arrivalSpeed="9.47" duration="672.00" routeLength="3544.68" waitingTime="0.00" waitingCount="0" stopTime="45.00" timeLoss="124.51" rerouteNo="1" devices="tripinfo_flow_0_in.3 routing_flow_0_in.3 fcd_flow_0_in.3" vType="car" speedFactor="0.99" vaporized=""/>
    <tripinfo id="flow_5_in.3" depart="24043.00" departLane="-687674693#1_0" departPos="0.20" departSpeed="5.45" departDelay="0.14" arrival="24729.00" arrivalLane="-687674693#1_0" arrivalPos="0.20" arrivalSpeed="2.47" duration="686.00" routeLength="3023.04" waitingTime="2.00" waitingCount="2" stopTime="45.00" timeLoss="168.77" rerouteNo="1" devices="tripinfo_flow_5_in.3 routing_flow_5_in.3 fcd_flow_5_in.3" vType="car" speedFactor="0.94" vaporized=""/>
    <tripinfo id="flow_15_in.3" depart="24013.00" departLane="27669864_0" departPos="0.20" departSpeed="4.12" departDelay="0.75" arrival="24758.00" arrivalLane="27669864_0" arrivalPos="0.20" arrivalSpeed="3.13" duration="745.00" routeLength="3692.58" waitingTime="2.00" waitingCount="2" stopTime="45.00" timeLoss="146.07" rerouteNo="1" devices="tripinfo_flow_15_in.3 routing_flow_15_in.3 fcd_flow_15_in.3" vType="car" speedFactor="0.88" vaporized=""/>
    <tripinfo id="flow_10_in.5" depart="24013.00" departLane="-687674681_0" departPos="0.20" departSpeed="0.00" departDelay="0.76" arrival="24763.00" arrivalLane="-687674681_0" arrivalPos="0.20" arrivalSpeed="10.11" duration="750.00" routeLength="2852.51" waitingTime="50.00" waitingCount="7" stopTime="45.00" timeLoss="232.80" rerouteNo="1" devices="tripinfo_flow_10_in.5 routing_flow_10_in.5 fcd_flow_10_in.5" vType="car" speedFactor="0.93" vaporized=""/>
    <tripinfo id="flow_10_in.6" depart="24135.00" departLane="-687674681_0" departPos="0.20" departSpeed="16.09" departDelay="0.31" arrival="24766.00" arrivalLane="-687674681_0" arrivalPos="0.20" arrivalSpeed="11.68" duration="631.00" routeLength="2925.56" waitingTime="22.00" waitingCount="5" stopTime="45.00" timeLoss="201.60" rerouteNo="2" devices="tripinfo_flow_10_in.6 routing_flow_10_in.6 fcd_flow_10_in.6" vType="car" speedFactor="1.16" vaporized=""/>
    <tripinfo id="flow_0_in.4" depart="24115.00" departLane="-690833056#0_0" departPos="5.10" departSpeed="13.00" departDelay="0.72" arrival="24814.00" arrivalLane="-690833056#0_0" arrivalPos="10.76" arrivalSpeed="8.68" duration="699.00" routeLength="3544.68" waitingTime="1.00" waitingCount="1" stopTime="45.00" timeLoss="124.17" rerouteNo="1" devices="tripinfo_flow_0_in.4 routing_flow_0_in.4 fcd_flow_0_in.4" vType="car" speedFactor="0.94" vaporized=""/>
    <tripinfo id="flow_5_in.4" depart="24258.00" departLane="-687674693#1_0" departPos="0.20" departSpeed="5.45" departDelay="0.86" arrival="24877.00" arrivalLane="-687674693#1_0" arrivalPos="0.20" arrivalSpeed="2.48" duration="619.00" routeLength="3023.04" waitingTime="2.00" waitingCount="2" stopTime="45.00" timeLoss="134.50" rerouteNo="1" devices="tripinfo_flow_5_in.4 routing_flow_5_in.4 fcd_flow_5_in.4" vType="car" speedFactor="1.01" vaporized=""/>
    <tripinfo id="flow_15_in.4" depart="24217.00" departLane="27669864_0" departPos="0.20" departSpeed="4.12" departDelay="0.67" arrival="24881.00" arrivalLane="27669864_0" arrivalPos="0.20" arrivalSpeed="3.56" duration="664.00" routeLength="3692.58" waitingTime="2.00" waitingCount="2" stopTime="45.00" timeLoss="137.04" rerouteNo="1" devices="tripinfo_flow_15_in.4 routing_flow_15_in.4 fcd_flow_15_in.4" vType="car" speedFactor="1.02" vaporized=""/>
    <tripinfo id="flow_10_in.7" depart="24258.00" departLane="-687674681_0" departPos="0.20" departSpeed="0.00" departDelay="0.86" arrival="24943.00" arrivalLane="-687674681_0" arrivalPos="0.20" arrivalSpeed="10.66" duration="685.00" routeLength="2925.56" waitingTime="45.00" waitingCount="5" stopTime="45.00" timeLoss="183.92" rerouteNo="1" devices="tripinfo_flow_10_in.7 routing_flow_10_in.7 fcd_flow_10_in.7" vType="car" speedFactor="0.97" vaporized=""/>
    <tripinfo id="flow_0_in.5" depart="24293.00" departLane="-690833056#0_0" departPos="5.10" departSpeed="12.36" departDelay="0.15" arrival="25038.00" arrivalLane="-690833056#0_0" arrivalPos="10.76" arrivalSpeed="9.67" duration="745.00" routeLength="3544.68" waitingTime="1.00" waitingCount="1" stopTime="45.00" timeLoss="141.05" rerouteNo="1" devices="tripinfo_flow_0_in.5 routing_flow_0_in.5 fcd_flow_0_in.5" vType="car" speedFactor="0.89" vaporized=""/>
    <tripinfo id="flow_10_in.8" depart="24380.00" departLane="-687674681_0" departPos="0.20" departSpeed="0.00" departDelay="0.41" arrival="25123.00" arrivalLane="-687674681_0" arrivalPos="0.20" arrivalSpeed="10.89" duration="743.00" routeLength="2852.51" waitingTime="14.00" waitingCount="6" stopTime="45.00" timeLoss="167.99" rerouteNo="1" devices="tripinfo_flow_10_in.8 routing_flow_10_in.8 fcd_flow_10_in.8" vType="car" speedFactor="0.83" vaporized=""/>
    <tripinfo id="flow_10_in.9" depart="24503.00" departLane="-687674681_0" departPos="0.20" departSpeed="15.72" departDelay="0.96" arrival="25132.00" arrivalLane="-687674681_0" arrivalPos="0.20" arrivalSpeed="9.90" duration="629.00" routeLength="2917.72" waitingTime="3.00" waitingCount="3" stopTime="45.00" timeLoss="193.44" rerouteNo="1" devices="tripinfo_flow_10_in.9 routing_flow_10_in.9 fcd_flow_10_in.9" vType="car" speedFactor="1.13" vaporized=""/>
    <tripinfo id="flow_5_in.5" depart="24472.00" departLane="-687674693#1_0" departPos="0.20" departSpeed="5.45" departDelay="0.57" arrival="25151.00" arrivalLane="-687674693#1_0" arrivalPos="0.20" arrivalSpeed="2.20" duration="679.00" routeLength="3023.04" waitingTime="6.00" waitingCount="3" stopTime="45.00" timeLoss="167.02" rerouteNo="1" devices="tripinfo_flow_5_in.5 routing_flow_5_in.5 fcd_flow_5_in.5" vType="car" speedFactor="0.95" vaporized=""/>
    <tripinfo id="flow_15_in.5" depart="24421.00" departLane="27669864_0" departPos="0.20" departSpeed="4.12" departDelay="0.59" arrival="25177.00" arrivalLane="27669864_0" arrivalPos="0.20" arrivalSpeed="2.14" duration="756.00" routeLength="3692.58" waitingTime="2.00" waitingCount="2" stopTime="45.00" timeLoss="152.59" rerouteNo="1" devices="tripinfo_flow_15_in.5 routing_flow_15_in.5 fcd_flow_15_in.5" vType="car" speedFactor="0.87" vaporized=""/>
    <tripinfo id="flow_0_in.6" depart="24472.00" departLane="-690833056#0_0" departPos="5.10" departSpeed="12.74" departDelay="0.57" arrival="25203.00" arrivalLane="-690833056#0_0" arrivalPos="10.76" arrivalSpeed="8.40" duration="731.00" routeLength="3544.68" waitingTime="1.00" waitingCount="1" stopTime="45.00" timeLoss="144.27" rerouteNo="1" devices="tripinfo_flow_0_in.6 routing_flow_0_in.6 fcd_flow_0_in.6" vType="car" speedFactor="0.92" vaporized=""/>
    <tripinfo id="flow_15_in.6" depart="24625.00" departLane="27669864_0" departPos="0.20" departSpeed="4.12" departDelay="0.51" arrival="25211.00" arrivalLane="27669864_0" arrivalPos="0.20" arrivalSpeed="3.47" duration="586.00" routeLength="3692.58" waitingTime="2.00" waitingCount="2" stopTime="45.00" timeLoss="120.08" rerouteNo="1" devices="tripinfo_flow_15_in.6 routing_flow_15_in.6 fcd_flow_15_in.6" vType="car" speedFactor="1.18" vaporized=""/>
    <tripinfo id="flow_0_in.7" depart="24650.00" departLane="-690833056#0_0" departPos="5.10" departSpeed="16.03" departDelay="0.00" arrival="25252.00" arrivalLane="-690833056#0_0" arrivalPos="10.76" arrivalSpeed="7.70" duration="602.00" routeLength="3590.55" waitingTime="1.00" waitingCount="1" stopTime="45.00" timeLoss="123.42" rerouteNo="1" devices="tripinfo_flow_0_in.7 routing_flow_0_in.7 fcd_flow_0_in.7" vType="car" speedFactor="1.15" vaporized=""/>
    <tripinfo id="flow_10_in.10" depart="24625.00" departLane="-687674681_0" departPos="0.20" departSpeed="0.00" departDelay="0.51" arrival="25326.00" arrivalLane="-687674681_0" arrivalPos="0.20" arrivalSpeed="9.96" duration="701.00" routeLength="2852.51" waitingTime="38.00" waitingCount="5" stopTime="45.00" timeLoss="185.58" rerouteNo="1" devices="tripinfo_flow_10_in.10 routing_flow_10_in.10 fcd_flow_10_in.10" vType="car" speedFactor="0.93" vaporized=""/>
    <tripinfo id="flow_5_in.6" depart="24686.00" departLane="-687674693#1_0" departPos="0.20" departSpeed="5.45" departDelay="0.28" arrival="25337.00" arrivalLane="-687674693#1_0" arrivalPos="0.20" arrivalSpeed="2.78" duration="651.00" routeLength="3023.04" waitingTime="2.00" waitingCount="2" stopTime="45.00" timeLoss="162.69" rerouteNo="1" devices="tripinfo_flow_5_in.6 routing_flow_5_in.6 fcd_flow_5_in.6" vType="car" speedFactor="1.01" vaporized=""/>
    <tripinfo id="flow_10_in.11" depart="24747.00" departLane="-687674681_0" departPos="0.20" departSpeed="0.00" departDelay="0.06" arrival="25384.00" arrivalLane="-687674681_0" arrivalPos="0.20" arrivalSpeed="8.03" duration="637.00" routeLength="2925.56" waitingTime="55.00" waitingCount="7" stopTime="45.00" timeLoss="213.51" rerouteNo="2" devices="tripinfo_flow_10_in.11 routing_flow_10_in.11 fcd_flow_10_in.11" vType="car" speedFactor="1.17" vaporized=""/>
    <tripinfo id="flow_15_in.7" depart="24829.00" departLane="27669864_0" departPos="0.20" departSpeed="4.12" departDelay="0.43" arrival="25489.00" arrivalLane="27669864_0" arrivalPos="0.20" arrivalSpeed="2.75" duration="660.00" routeLength="3692.58" waitingTime="3.00" waitingCount="3" stopTime="45.00" timeLoss="134.44" rerouteNo="1" devices="tripinfo_flow_15_in.7 routing_flow_15_in.7 fcd_flow_15_in.7" vType="car" speedFactor="1.02" vaporized=""/>
    <tripinfo id="flow_0_in.8" depart="24829.00" departLane="-690833056#0_0" departPos="5.10" departSpeed="13.82" departDelay="0.43" arrival="25499.00" arrivalLane="-690833056#0_0" arrivalPos="10.76" arrivalSpeed="7.87" duration="670.00" routeLength="3544.68" waitingTime="0.00" waitingCount="0" stopTime="45.00" timeLoss="125.01" rerouteNo="1" devices="tripinfo_flow_0_in.8 routing_flow_0_in.8 fcd_flow_0_in.8" vType="car" speedFactor="0.99" vaporized=""/>
    <tripinfo id="flow_5_in.7" depart="24901.00" departLane="-687674693#1_0" departPos="0.20" departSpeed="5.45" departDelay="1.00" arrival="25503.00" arrivalLane="-687674693#1_0" arrivalPos="0.20" arrivalSpeed="4.08" duration="602.00" routeLength="3023.04" waitingTime="2.00" waitingCount="2" stopTime="45.00" timeLoss="176.53" rerouteNo="1" devices="tripinfo_flow_5_in.7 routing_flow_5_in.7 fcd_flow_5_in.7" vType="car" speedFactor="1.18" vaporized=""/>
    <tripinfo id="flow_10_in.12" depart="24870.00" departLane="-687674681_0" departPos="0.20" departSpeed="13.52" departDelay="0.61" arrival="25504.00" arrivalLane="-687674681_0" arrivalPos="0.20" arrivalSpeed="11.38" duration="634.00" routeLength="2852.51" waitingTime="4.00" waitingCount="4" stopTime="45.00" timeLoss="139.01" rerouteNo="1" devices="tripinfo_flow_10_in.12 routing_flow_10_in.12 fcd_flow_10_in.12" vType="car" speedFactor="0.97" vaporized=""/>
    <tripinfo id="flow_10_in.13" depart="24992.00" departLane="-687674681_0" departPos="0.20" departSpeed="0.00" departDelay="0.16" arrival="25598.00" arrivalLane="-687674681_0" arrivalPos="0.20" arrivalSpeed="10.87" duration="606.00" routeLength="2925.56" waitingTime="31.00" waitingCount="5" stopTime="45.00" timeLoss="158.69" rerouteNo="2" devices="tripinfo_flow_10_in.13 routing_flow_10_in.13 fcd_flow_10_in.13" vType="car" speedFactor="1.10" vaporized=""/>
    <tripinfo id="flow_15_in.8" depart="25033.00" departLane="27669864_0" departPos="0.20" departSpeed="4.12" departDelay="0.34" arrival="25692.00" arrivalLane="27669864_0" arrivalPos="0.20" arrivalSpeed="3.38" duration="659.00" routeLength="3692.58" waitingTime="2.00" waitingCount="2" stopTime="45.00" timeLoss="139.92" rerouteNo="1" devices="tripinfo_flow_15_in.8 routing_flow_15_in.8 fcd_flow_15_in.8" vType="car" speedFactor="1.03" vaporized=""/>
    <tripinfo id="flow_10_in.14" depart="25115.00" departLane="-687674681_0" departPos="0.20" departSpeed="15.17" departDelay="0.71" arrival="25750.00" arrivalLane="-687674681_0" arrivalPos="0.20" arrivalSpeed="9.38" duration="635.00" routeLength="2917.72" waitingTime="24.00" waitingCount="5" stopTime="45.00" timeLoss="184.09" rerouteNo="1" devices="tripinfo_flow_10_in.14 routing_flow_10_in.14 fcd_flow_10_in.14" vType="car" speedFactor="1.09" vaporized=""/>
    <tripinfo id="flow_0_in.9" depart="25008.00" departLane="-690833056#0_0" departPos="5.10" departSpeed="12.51" departDelay="0.86" arrival="25761.00" arrivalLane="-690833056#0_0" arrivalPos="10.76" arrivalSpeed="7.69" duration="753.00" routeLength="3544.68" waitingTime="0.00" waitingCount="0" stopTime="45.00" timeLoss="153.83" rerouteNo="1" devices="tripinfo_flow_0_in.9 routing_flow_0_in.9 fcd_flow_0_in.9" vType="car" speedFactor="0.90" vaporized=""/>
    <tripinfo id="flow_5_in.8" depart="25115.00" departLane="-687674693#1_0" departPos="0.20" departSpeed="5.45" departDelay="0.71" arrival="25766.00" arrivalLane="-687674693#1_0" arrivalPos="0.20" arrivalSpeed="3.39" duration="651.00" routeLength="3023.04" waitingTime="2.00" waitingCount="2" stopTime="45.00" timeLoss="141.75" rerouteNo="1" devices="tripinfo_flow_5_in.8 routing_flow_5_in.8 fcd_flow_5_in.8" vType="car" speedFactor="0.96" vaporized=""/>
    <tripinfo id="flow_0_in.10" depart="25186.00" departLane="-690833056#0_0" departPos="5.10" departSpeed="14.42" departDelay="0.29" arrival="25834.00" arrivalLane="-690833056#0_0" arrivalPos="10.76" arrivalSpeed="8.64" duration="648.00" routeLength="3544.68" waitingTime="0.00" waitingCount="0" stopTime="45.00" timeLoss="123.60" rerouteNo="1" devices="tripinfo_flow_0_in.10 routing_flow_0_in.10 fcd_flow_0_in.10" vType="car" speedFactor="1.04" vaporized=""/>
    <tripinfo id="flow_10_in.15" depart="25237.00" departLane="-687674681_0" departPos="0.20" departSpeed="14.49" departDelay="0.27" arrival="25841.00" arrivalLane="-687674681_0" arrivalPos="0.20" arrivalSpeed="9.55" duration="604.00" routeLength="2925.56" waitingTime="4.00" waitingCount="4" stopTime="45.00" timeLoss="134.35" rerouteNo="2" devices="tripinfo_flow_10_in.15 routing_flow_10_in.15 fcd_flow_10_in.15" vType="car" speedFactor="1.04" vaporized=""/>
    <tripinfo id="flow_15_in.9" depart="25237.00" departLane="27669864_0" departPos="0.20" departSpeed="4.12" departDelay="0.26" arrival="25888.00" arrivalLane="27669864_0" arrivalPos="0.20" arrivalSpeed="3.55" duration="651.00" routeLength="3692.58" waitingTime="3.00" waitingCount="3" stopTime="45.00" timeLoss="151.98" rerouteNo="1" devices="tripinfo_flow_15_in.9 routing_flow_15_in.9 fcd_flow_15_in.9" vType="car" speedFactor="1.09" vaporized=""/>
    <tripinfo id="flow_5_in.9" depart="25329.00" departLane="-687674693#1_0" departPos="0.20" departSpeed="5.45" departDelay="0.43" arrival="25955.00" arrivalLane="-687674693#1_0" arrivalPos="0.20" arrivalSpeed="5.04" duration="626.00" routeLength="3023.04" waitingTime="3.00" waitingCount="3" stopTime="45.00" timeLoss="134.17" rerouteNo="1" devices="tripinfo_flow_5_in.9 routing_flow_5_in.9 fcd_flow_5_in.9" vType="car" speedFactor="1.00" vaporized=""/>
    <tripinfo id="flow_10_in.16" depart="25360.00" departLane="-687674681_0" departPos="0.20" departSpeed="0.00" departDelay="0.82" arrival="26112.00" arrivalLane="-687674681_0" arrivalPos="0.20" arrivalSpeed="10.89" duration="752.00" routeLength="2852.51" waitingTime="61.00" waitingCount="6" stopTime="45.00" timeLoss="219.27" rerouteNo="1" devices="tripinfo_flow_10_in.16 routing_flow_10_in.16 fcd_flow_10_in.16" vType="car" speedFactor="0.90" vaporized=""/>
    <tripinfo id="flow_0_in.11" depart="25365.00" departLane="-690833056#0_0" departPos="5.10" departSpeed="12.18" departDelay="0.72" arrival="26113.00" arrivalLane="-690833056#0_0" arrivalPos="10.76" arrivalSpeed="8.80" duration="748.00" routeLength="3544.68" waitingTime="0.00" waitingCount="0" stopTime="45.00" timeLoss="135.12" rerouteNo="1" devices="tripinfo_flow_0_in.11 routing_flow_0_in.11 fcd_flow_0_in.11" vType="car" speedFactor="0.88" vaporized=""/>
    <tripinfo id="flow_5_in.10" depart="25543.00" departLane="-687674693#1_0" departPos="0.20" departSpeed="5.45" departDelay="0.14" arrival="26196.00" arrivalLane="-687674693#1_0" arrivalPos="0.20" arrivalSpeed="3.32" duration="653.00" routeLength="3023.04" waitingTime="2.00" waitingCount="2" stopTime="45.00" timeLoss="168.78" rerouteNo="1" devices="tripinfo_flow_5_in.10 routing_flow_5_in.10 fcd_flow_5_in.10" vType="car" speedFactor="1.02" vaporized=""/>
    <tripinfo id="flow_0_in.12" depart="25543.00" departLane="-690833056#0_0" departPos="5.10" departSpeed="16.24" departDelay="0.15" arrival="26197.00" arrivalLane="-690833056#0_0" arrivalPos="10.76" arrivalSpeed="7.96" duration="654.00" routeLength="3544.68" waitingTime="0.00" waitingCount="0" stopTime="45.00" timeLoss="182.90" rerouteNo="1" devices="tripinfo_flow_0_in.12 routing_flow_0_in.12 fcd_flow_0_in.12" vType="car" speedFactor="1.17" vaporized=""/>
    <tripinfo id="flow_10_in.17" depart="25482.00" departLane="-687674681_0" departPos="0.20" departSpeed="11.87" departDelay="0.37" arrival="26202.00" arrivalLane="-687674681_0" arrivalPos="0.20" arrivalSpeed="11.04" duration="720.00" routeLength="2852.51" waitingTime="9.00" waitingCount="5" stopTime="45.00" timeLoss="162.84" rerouteNo="1" devices="tripinfo_flow_10_in.17 routing_flow_10_in.17 fcd_flow_10_in.17" vType="car" speedFactor="0.85" vaporized=""/>
    <tripinfo id="flow_15_in.10" depart="25441.00" departLane="27669864_0" departPos="0.20" departSpeed="4.12" departDelay="0.18" arrival="26212.00" arrivalLane="27669864_0" arrivalPos="0.20" arrivalSpeed="2.94" duration="771.00" routeLength="3692.58" waitingTime="2.00" waitingCount="2" stopTime="45.00" timeLoss="151.81" rerouteNo="1" devices="tripinfo_flow_15_in.10 routing_flow_15_in.10 fcd_flow_15_in.10" vType="car" speedFactor="0.85" vaporized=""/>
    <tripinfo id="flow_10_in.18" depart="25605.00" departLane="-687674681_0" departPos="0.20" departSpeed="0.00" departDelay="0.92" arrival="26291.00" arrivalLane="-687674681_0" arrivalPos="0.20" arrivalSpeed="10.87" duration="686.00" routeLength="2925.56" waitingTime="95.00" waitingCount="6" stopTime="45.00" timeLoss="235.28" rerouteNo="2" devices="tripinfo_flow_10_in.18 routing_flow_10_in.18 fcd_flow_10_in.18" vType="car" speedFactor="1.10" vaporized=""/>
    <tripinfo id="flow_15_in.11" depart="25645.00" departLane="27669864_0" departPos="0.20" departSpeed="4.12" departDelay="0.10" arrival="26323.00" arrivalLane="27669864_0" arrivalPos="0.20" arrivalSpeed="2.41" duration="678.00" routeLength="3692.58" waitingTime="4.00" waitingCount="4" stopTime="45.00" timeLoss="147.21" rerouteNo="1" devices="tripinfo_flow_15_in.11 routing_flow_15_in.11 fcd_flow_15_in.11" vType="car" speedFactor="1.00" vaporized=""/>
    <tripinfo id="flow_5_in.11" depart="25758.00" departLane="-687674693#1_0" departPos="0.20" departSpeed="5.45" departDelay="0.85" arrival="26370.00" arrivalLane="-687674693#1_0" arrivalPos="0.20" arrivalSpeed="5.70" duration="612.00" routeLength="3023.04" waitingTime="2.00" waitingCount="2" stopTime="45.00" timeLoss="173.43" rerouteNo="1" devices="tripinfo_flow_5_in.11 routing_flow_5_in.11 fcd_flow_5_in.11" vType="car" speedFactor="1.14" vaporized=""/>
    <tripinfo id="flow_0_in.13" depart="25722.00" departLane="-690833056#0_0" departPos="5.10" departSpeed="13.83" departDelay="0.58" arrival="26387.00" arrivalLane="-690833056#0_0" arrivalPos="10.76" arrivalSpeed="8.63" duration="665.00" routeLength="3544.68" waitingTime="0.00" waitingCount="0" stopTime="45.00" timeLoss="119.88" rerouteNo="1" devices="tripinfo_flow_0_in.13 routing_flow_0_in.13 fcd_flow_0_in.13" vType="car" speedFactor="1.00" vaporized=""/>
    <tripinfo id="flow_10_in.19" depart="25727.00" departLane="-687674681_0" departPos="0.20" departSpeed="0.00" departDelay="0.47" arrival="26473.00" arrivalLane="-687674681_0" arrivalPos="0.20" arrivalSpeed="9.45" duration="746.00" routeLength="2852.51" waitingTime="54.00" waitingCount="6" stopTime="45.00" timeLoss="214.18" rerouteNo="1" devices="tripinfo_flow_10_in.19 routing_flow_10_in.19 fcd_flow_10_in.19" vType="car" speedFactor="0.90" vaporized=""/>
    <tripinfo id="flow_10_in.20" depart="25849.00" departLane="-687674681_0" departPos="0.20" departSpeed="14.22" departDelay="0.02" arrival="26477.00" arrivalLane="-687674681_0" arrivalPos="0.20" arrivalSpeed="10.98" duration="628.00" routeLength="2925.56" waitingTime="4.00" waitingCount="4" stopTime="45.00" timeLoss="148.79" rerouteNo="1" devices="tripinfo_flow_10_in.20 routing_flow_10_in.20 fcd_flow_10_in.20" vType="car" speedFactor="1.02" vaporized=""/>
    <tripinfo id="flow_0_in.14" depart="25900.00" departLane="-690833056#0_0" departPos="5.10" departSpeed="15.04" departDelay="0.01" arrival="26519.00" arrivalLane="-690833056#0_0" arrivalPos="10.76" arrivalSpeed="7.43" duration="619.00" routeLength="3544.68" waitingTime="0.00" waitingCount="0" stopTime="45.00" timeLoss="113.91" rerouteNo="1" devices="tripinfo_flow_0_in.14 routing_flow_0_in.14 fcd_flow_0_in.14" vType="car" speedFactor="1.08" vaporized=""/>
    <tripinfo id="flow_15_in.12" depart="25849.00" departLane="27669864_0" departPos="0.20" departSpeed="4.12" departDelay="0.02" arrival="26535.00" arrivalLane="27669864_0" arrivalPos="0.20" arrivalSpeed="2.54" duration="686.00" routeLength="3692.58" waitingTime="3.00" waitingCount="3" stopTime="45.00" timeLoss="138.76" rerouteNo="1" devices="tripinfo_flow_15_in.12 routing_flow_15_in.12 fcd_flow_15_in.12" vType="car" speedFactor="0.97" vaporized=""/>
    <tripinfo id="flow_5_in.12" depart="25972.00" departLane="-687674693#1_0" departPos="0.20" departSpeed="5.45" departDelay="0.57" arrival="26552.00" arrivalLane="-687674693#1_0" arrivalPos="0.20" arrivalSpeed="3.64" duration="580.00" routeLength="3023.04" waitingTime="2.00" waitingCount="2" stopTime="45.00" timeLoss="134.67" rerouteNo="1" devices="tripinfo_flow_5_in.12 routing_flow_5_in.12 fcd_flow_5_in.12" vType="car" speedFactor="1.12" vaporized=""/>