<?xml version="1.0" encoding="UTF-8"?>

<!-- generated on 2026-04-04T17:58:19.215226+02:00 by Eclipse SUMO sumo 1.26.0
<sumoConfiguration xmlns:xsi="http://www.w3.org/2001/XMLSchema-instance" xsi:noNamespaceSchemaLocation="http://sumo.dlr.de/xsd/sumoConfiguration.xsd">

    <input>
        <net-file value="C:\Users\neill\Github\tokai-sim\sim\sumo\bergvliet.net.xml"/>
        <route-files value="C:\Users\neill\Github\tokai-sim\sim\sumo\demand-L.rou.xml"/>
        <additional-files value="C:\Users\neill\Github\tokai-sim\sim\sumo\speed-humps.add.xml"/>
    </input>

    <output>
        <fcd-output value="C:\Users\neill\Github\tokai-sim\sim\sumo\fcd-L.xml"/>
        <tripinfo-output value="C:\Users\neill\Github\tokai-sim\sim\sumo\tripinfo-L.xml"/>
    </output>

    <time>
        <begin value="23400"/>
        <end value="32400"/>
        <step-length value="1"/>
    </time>

    <processing>
        <ignore-route-errors value="true"/>
    </processing>

    <routing>
        <routing-algorithm value="astar"/>
        <device.rerouting.probability value="1.0"/>
        <device.rerouting.period value="60"/>
        <device.rerouting.pre-period value="0"/>
    </routing>

    <report>
        <no-warnings value="true"/>
        <no-step-log value="true"/>
    </report>

    <fcd_device>
        <device.fcd.period value="30"/>
    </fcd_device>

</sumoConfiguration>
-->

<tripinfos xmlns:xsi="http://www.w3.org/2001/XMLSchema-instance" xsi:noNamespaceSchemaLocation="http://sumo.dlr.de/xsd/tripinfo_file.xsd">
    <tripinfo id="flow_10_in.0" depart="23400.00" departLane="-687674681_0" departPos="0.20" departSpeed="14.03" departDelay="0.00" arrival="24059.00" arrivalLane="-687674681_0" arrivalPos="0.20" arrivalSpeed="10.26" duration="659.00" routeLength="2925.56" waitingTime="5.00" waitingCount="5" stopTime="45.00" timeLoss="173.22" rerouteNo="1" devices="tripinfo_flow_10_in.0 routing_flow_10_in.0 fcd_flow_10_in.0" vType="car" speedFactor="1.01" vaporized=""/>
    <tripinfo id="flow_5_in.0" depart="23400.00" departLane="-687674693#1_0" departPos="0.20" departSpeed="5.45" departDelay="0.00" arrival="24060.00" arrivalLane="-687674693#1_0" arrivalPos="0.20" arrivalSpeed="2.91" duration="660.00" routeLength="3023.04" waitingTime="5.00" waitingCount="3" stopTime="45.00" timeLoss="139.40" rerouteNo="1" devices="tripinfo_flow_5_in.0 routing_flow_5_in.0 fcd_flow_5_in.0" vType="car" speedFactor="0.94" vaporized=""/>
    <tripinfo id="flow_0_in.0" depart="23400.00" departLane="-690833056#0_0" departPos="5.10" departSpeed="14.72" departDelay="0.00" arrival="24081.00" arrivalLane="-690833056#0_0" arrivalPos="10.76" arrivalSpeed="8.83" duration="681.00" routeLength="3544.68" waitingTime="10.00" waitingCount="1" stopTime="45.00" timeLoss="166.04" rerouteNo="1" devices="tripinfo_flow_0_in.0 routing_flow_0_in.0 fcd_flow_0_in.0" vType="car" speedFactor="1.06" vaporized=""/>
    <tripinfo id="flow_15_in.0" depart="23400.00" departLane="27669864_0" departPos="0.20" departSpeed="4.12" departDelay="0.00" arrival="24093.00" arrivalLane="27669864_0" arrivalPos="0.20" arrivalSpeed="3.21" duration="693.00" routeLength="3692.58" waitingTime="2.00" waitingCount="2" stopTime="45.00" timeLoss="192.70" rerouteNo="1" devices="tripinfo_flow_15_in.0 routing_flow_15_in.0 fcd_flow_15_in.0" vType="car" speedFactor="1.08" vaporized=""/>
    <tripinfo id="flow_10_in.1" depart="23514.00" departLane="-687674681_0" departPos="0.20" departSpeed="14.31" departDelay="0.00" arrival="24130.00" arrivalLane="-687674681_0" arrivalPos="0.20" arrivalSpeed="9.33" duration="616.00" routeLength="2852.51" waitingTime="12.00" waitingCount="5" stopTime="45.00" timeLoss="145.94" rerouteNo="1" devices="tripinfo_flow_10_in.1 routing_flow_10_in.1 fcd_flow_10_in.1" vType="car" speedFactor="1.03" vaporized=""/>
    <tripinfo id="flow_5_in.1" depart="23615.00" departLane="-687674693#1_0" departPos="0.20" departSpeed="5.45" departDelay="0.71" arrival="24216.00" arrivalLane="-687674693#1_0" arrivalPos="0.20" arrivalSpeed="3.36" duration="601.00" routeLength="3023.04" waitingTime="2.00" waitingCount="2" stopTime="45.00" timeLoss="129.49" rerouteNo="1" devices="tripinfo_flow_5_in.1 routing_flow_5_in.1 fcd_flow_5_in.1" vType="car" speedFactor="1.05" vaporized=""/>
    <tripinfo id="flow_10_in.2" depart="23628.00" departLane="-687674681_0" departPos="0.20" departSpeed="0.00" departDelay="0.01" arrival="24402.00" arrivalLane="-687674681_0" arrivalPos="0.20" arrivalSpeed="10.62" duration="774.00" routeLength="2852.51" waitingTime="68.00" waitingCount="6" stopTime="45.00" timeLoss="234.69" rerouteNo="1" devices="tripinfo_flow_10_in.2 routing_flow_10_in.2 fcd_flow_10_in.2" vType="car" speedFactor="0.89" vaporized=""/>
    <tripinfo id="flow_0_in.1" depart="23615.00" departLane="-690833056#0_0" departPos="5.10" departSpeed="11.54" departDelay="0.71" arrival="24405.00" arrivalLane="-690833056#0_0" arrivalPos="10.76" arrivalSpeed="7.63" duration="790.00" routeLength="3544.68" waitingTime="1.00" waitingCount="1" stopTime="45.00" timeLoss="144.46" rerouteNo="1" devices="tripinfo_flow_0_in.1 routing_flow_0_in.1 fcd_flow_0_in.1" vType="car" speedFactor="0.83" vaporized=""/>
    <tripinfo id="flow_10_in.3" depart="23742.00" departLane="-687674681_0" departPos="0.20" departSpeed="0.00" departDelay="0.01" arrival="24419.00" arrivalLane="-687674681_0" arrivalPos="0.20" arrivalSpeed="10.38" duration="677.00" routeLength="2852.51" waitingTime="22.00" waitingCount="6" stopTime="45.00" timeLoss="163.90" rerouteNo="1" devices="tripinfo_flow_10_in.3 routing_flow_10_in.3 fcd_flow_10_in.3" vType="car" speedFactor="0.94" vaporized=""/>
    <tripinfo id="flow_5_in.2" depart="23829.00" departLane="-687674693#1_0" departPos="0.20" departSpeed="5.45" departDelay="0.43" arrival="24419.00" arrivalLane="-687674693#1_0" arrivalPos="0.20" arrivalSpeed="3.36" duration="590.00" routeLength="3023.04" waitingTime="2.00" waitingCount="2" stopTime="45.00" timeLoss="137.01" rerouteNo="1" devices="tripinfo_flow_5_in.2 routing_flow_5_in.2 fcd_flow_5_in.2" vType="car" speedFactor="1.09" vaporized=""/>
    <tripinfo id="flow_10_in.4" depart="23856.00" departLane="-687674681_0" departPos="0.20" departSpeed="14.26" departDelay="0.02" arrival="24491.00" arrivalLane="-687674681_0" arrivalPos="0.20" arrivalSpeed="11.26" duration="635.00" routeLength="2925.56" waitingTime="21.00" waitingCount="5" stopTime="45.00" timeLoss="157.88" rerouteNo="1" devices="tripinfo_flow_10_in.4 routing_flow_10_in.4 fcd_flow_10_in.4" vType="car" speedFactor="1.03" vaporized=""/>
    <tripinfo id="flow_10_in.5" depart="23970.00" departLane="-687674681_0" departPos="0.20" departSpeed="14.54" departDelay="0.02" arrival="24579.00" arrivalLane="-687674681_0" arrivalPos="0.20" arrivalSpeed="10.66" duration="609.00" routeLength="2925.56" waitingTime="4.00" waitingCount="4" stopTime="45.00" timeLoss="138.56" rerouteNo="1" devices="tripinfo_flow_10_in.5 routing_flow_10_in.5 fcd_flow_10_in.5" vType="car" speedFactor="1.05" vaporized=""/>
    <tripinfo id="flow_0_in.2" depart="23829.00" departLane="-690833056#0_0" departPos="5.10" departSpeed="11.90" departDelay="0.43" arrival="24594.00" arrivalLane="-690833056#0_0" arrivalPos="10.76" arrivalSpeed="9.59" duration="765.00" routeLength="3544.68" waitingTime="1.00" waitingCount="1" stopTime="45.00" timeLoss="137.68" rerouteNo="1" devices="tripinfo_flow_0_in.2 routing_flow_0_in.2 fcd_flow_0_in.2" vType="car" speedFactor="0.86" vaporized=""/>
    <tripinfo id="flow_5_in.3" depart="24043.00" departLane="-687674693#1_0" departPos="0.20" departSpeed="5.45" departDelay="0.14" arrival="24679.00" arrivalLane="-687674693#1_0" arrivalPos="0.20" arrivalSpeed="3.31" duration="636.00" routeLength="3023.04" waitingTime="7.00" waitingCount="4" stopTime="45.00" timeLoss="142.49" rerouteNo="1" devices="tripinfo_flow_5_in.3 routing_flow_5_in.3 fcd_flow_5_in.3" vType="car" speedFactor="0.99" vaporized=""/>
    <tripinfo id="flow_0_in.3" depart="24043.00" departLane="-690833056#0_0" departPos="5.10" departSpeed="15.60" departDelay="0.14" arrival="24688.00" arrivalLane="-690833056#0_0" arrivalPos="10.76" arrivalSpeed="9.09" duration="645.00" routeLength="3544.68" waitingTime="1.00" waitingCount="1" stopTime="45.00" timeLoss="156.88" rerouteNo="1" devices="tripinfo_flow_0_in.3 routing_flow_0_in.3 fcd_flow_0_in.3" vType="car" speedFactor="1.12" vaporized=""/>
    <tripinfo id="flow_10_in.6" depart="24084.00" departLane="-687674681_0" departPos="0.20" departSpeed="0.00" departDelay="0.02" arrival="24779.00" arrivalLane="-687674681_0" arrivalPos="0.20" arrivalSpeed="9.86" duration="695.00" routeLength="2852.51" waitingTime="39.00" waitingCount="5" stopTime="45.00" timeLoss="177.63" rerouteNo="1" devices="tripinfo_flow_10_in.6 routing_flow_10_in.6 fcd_flow_10_in.6" vType="car" speedFactor="0.93" vaporized=""/>
    <tripinfo id="flow_5_in.4" depart="24258.00" departLane="-687674693#1_0" departPos="0.20" departSpeed="5.45" departDelay="0.86" arrival="24923.00" arrivalLane="-687674693#1_0" arrivalPos="0.20" arrivalSpeed="2.20" duration="665.00" routeLength="3023.04" waitingTime="3.00" waitingCount="3" stopTime="45.00" timeLoss="147.16" rerouteNo="1" devices="tripinfo_flow_5_in.4 routing_flow_5_in.4 fcd_flow_5_in.4" vType="car" speedFactor="0.94" vaporized=""/>
    <tripinfo id="flow_10_in.7" depart="24198.00" departLane="-687674681_0" departPos="0.20" departSpeed="0.00" departDelay="0.03" arrival="24942.00" arrivalLane="-687674681_0" arrivalPos="0.20" arrivalSpeed="11.69" duration="744.00" routeLength="2852.51" waitingTime="42.00" waitingCount="7" stopTime="45.00" timeLoss="198.44" rerouteNo="1" devices="tripinfo_flow_10_in.7 routing_flow_10_in.7 fcd_flow_10_in.7" vType="car" speedFactor="0.88" vaporized=""/>
    <tripinfo id="flow_10_in.8" depart="24312.00" departLane="-687674681_0" departPos="0.20" departSpeed="16.09" departDelay="0.03" arrival="24944.00" arrivalLane="-687674681_0" arrivalPos="0.20" arrivalSpeed="10.44" duration="632.00" routeLength="2925.56" waitingTime="13.00" waitingCount="5" stopTime="45.00" timeLoss="204.77" rerouteNo="1" devices="tripinfo_flow_10_in.8 routing_flow_10_in.8 fcd_flow_10_in.8" vType="car" speedFactor="1.16" vaporized=""/>
    <tripinfo id="flow_0_in.4" depart="24258.00" departLane="-690833056#0_0" departPos="5.10" departSpeed="13.08" departDelay="0.86" arrival="24963.00" arrivalLane="-690833056#0_0" arrivalPos="10.76" arrivalSpeed="8.13" duration="705.00" routeLength="3544.68" waitingTime="0.00" waitingCount="0" stopTime="45.00" timeLoss="132.54" rerouteNo="1" devices="tripinfo_flow_0_in.4 routing_flow_0_in.4 fcd_flow_0_in.4" vType="car" speedFactor="0.94" vaporized=""/>
    <tripinfo id="flow_10_in.9" depart="24426.00" departLane="-687674681_0" departPos="0.20" departSpeed="14.14" departDelay="0.04" arrival="25048.00" arrivalLane="-687674681_0" arrivalPos="0.20" arrivalSpeed="10.20" duration="622.00" routeLength="2925.56" waitingTime="5.00" waitingCount="5" stopTime="45.00" timeLoss="138.64" rerouteNo="2" devices="tripinfo_flow_10_in.9 routing_flow_10_in.9 fcd_flow_10_in.9" vType="car" speedFactor="1.02" vaporized=""/>
    <tripinfo id="flow_5_in.5" depart="24472.00" departLane="-687674693#1_0" departPos="0.20" departSpeed="5.45" departDelay="0.57" arrival="25120.00" arrivalLane="-687674693#1_0" arrivalPos="0.20" arrivalSpeed="3.09" duration="648.00" routeLength="3023.04" waitingTime="4.00" waitingCount="3" stopTime="45.00" timeLoss="146.39" rerouteNo="1" devices="tripinfo_flow_5_in.5 routing_flow_5_in.5 fcd_flow_5_in.5" vType="car" speedFactor="0.97" vaporized=""/>
    <tripinfo id="flow_0_in.5" depart="24472.00" departLane="-690833056#0_0" departPos="5.10" departSpeed="14.03" departDelay="0.57" arrival="25138.00" arrivalLane="-690833056#0_0" arrivalPos="10.76" arrivalSpeed="7.56" duration="666.00" routeLength="3544.68" waitingTime="0.00" waitingCount="0" stopTime="45.00" timeLoss="128.58" rerouteNo="1" devices="tripinfo_flow_0_in.5 routing_flow_0_in.5 fcd_flow_0_in.5" vType="car" speedFactor="1.01" vaporized=""/>
    <tripinfo id="flow_10_in.10" depart="24540.00" departLane="-687674681_0" departPos="0.20" departSpeed="0.00" departDelay="0.04" arrival="25301.00" arrivalLane="-687674681_0" arrivalPos="0.20" arrivalSpeed="9.17" duration="761.00" routeLength="2852.51" waitingTime="71.00" waitingCount="6" stopTime="45.00" timeLoss="224.25" rerouteNo="1" devices="tripinfo_flow_10_in.10 routing_flow_10_in.10 fcd_flow_10_in.10" vType="car" speedFactor="0.89" vaporized=""/>
    <tripinfo id="flow_10_in.11" depart="24654.00" departLane="-687674681_0" departPos="0.20" departSpeed="0.00" departDelay="0.04" arrival="25401.00" arrivalLane="-687674681_0" arrivalPos="0.20" arrivalSpeed="10.47" duration="747.00" routeLength="2852.51" waitingTime="10.00" waitingCount="6" stopTime="45.00" timeLoss="171.45" rerouteNo="1" devices="tripinfo_flow_10_in.11 routing_flow_10_in.11 fcd_flow_10_in.11" vType="car" speedFactor="0.83" vaporized=""/>
    <tripinfo id="flow_5_in.6" depart="24686.00" departLane="-687674693#1_0" departPos="0.20" departSpeed="5.45" departDelay="0.28" arrival="25411.00" arrivalLane="-687674693#1_0" arrivalPos="0.20" arrivalSpeed="2.47" duration="725.00" routeLength="3023.04" waitingTime="2.00" waitingCount="2" stopTime="45.00" timeLoss="195.29" rerouteNo="1" devices="tripinfo_flow_5_in.6 routing_flow_5_in.6 fcd_flow_5_in.6" vType="car" speedFactor="0.92" vaporized=""/>
    <tripinfo id="flow_0_in.6" depart="24688.00" departLane="-690833056#0_0" departPos="5.10" departSpeed="12.12" departDelay="2.28" arrival="25450.00" arrivalLane="-690833056#0_0" arrivalPos="10.76" arrivalSpeed="6.91" duration="762.00" routeLength="3544.68" waitingTime="0.00" waitingCount="0" stopTime="45.00" timeLoss="146.85" rerouteNo="1" devices="tripinfo_flow_0_in.6 routing_flow_0_in.6 fcd_flow_0_in.6" vType="car" speedFactor="0.87" vaporized=""/>
    <tripinfo id="flow_5_in.7" depart="24901.00" departLane="-687674693#1_0" departPos="0.20" departSpeed="5.45" departDelay="1.00" arrival="25461.00" arrivalLane="-687674693#1_0" arrivalPos="0.20" arrivalSpeed="3.04" duration="560.00" routeLength="3023.04" waitingTime="2.00" waitingCount="2" stopTime="45.00" timeLoss="133.02" rerouteNo="1" devices="tripinfo_flow_5_in.7 routing_flow_5_in.7 fcd_flow_5_in.7" vType="car" speedFactor="1.18" vaporized=""/>
    <tripinfo id="flow_10_in.12" depart="24768.00" departLane="-687674681_0" departPos="0.20" departSpeed="13.18" departDelay="0.05" arrival="25474.00" arrivalLane="-687674681_0" arrivalPos="0.20" arrivalSpeed="7.55" duration="706.00" routeLength="2925.56" waitingTime="53.00" waitingCount="5" stopTime="45.00" timeLoss="194.90" rerouteNo="1" devices="tripinfo_flow_10_in.12 routing_flow_10_in.12 fcd_flow_10_in.12" vType="car" speedFactor="0.95" vaporized=""/>
    <tripinfo id="flow_10_in.13" depart="24882.00" departLane="-687674681_0" departPos="0.20" departSpeed="0.00" departDelay="0.05" arrival="25499.00" arrivalLane="-687674681_0" arrivalPos="0.20" arrivalSpeed="9.53" duration="617.00" routeLength="2917.72" waitingTime="50.00" waitingCount="4" stopTime="45.00" timeLoss="180.32" rerouteNo="1" devices="tripinfo_flow_10_in.13 routing_flow_10_in.13 fcd_flow_10_in.13" vType="car" speedFactor="1.13" vaporized=""/>
    <tripinfo id="flow_10_in.14" depart="24996.00" departLane="-687674681_0" departPos="0.20" departSpeed="0.00" departDelay="0.06" arrival="25585.00" arrivalLane="-687674681_0" arrivalPos="0.20" arrivalSpeed="10.02" duration="589.00" routeLength="2844.67" waitingTime="26.00" waitingCount="4" stopTime="45.00" timeLoss="164.79" rerouteNo="1" devices="tripinfo_flow_10_in.14 routing_flow_10_in.14 fcd_flow_10_in.14" vType="car" speedFactor="1.15" vaporized=""/>
    <tripinfo id="flow_0_in.7" depart="24901.00" departLane="-690833056#0_0" departPos="5.10" departSpeed="12.94" departDelay="1.00" arrival="25615.00" arrivalLane="-690833056#0_0" arrivalPos="10.76" arrivalSpeed="10.47" duration="714.00" routeLength="3544.68" waitingTime="1.00" waitingCount="1" stopTime="45.00" timeLoss="135.74" rerouteNo="1" devices="tripinfo_flow_0_in.7 routing_flow_0_in.7 fcd_flow_0_in.7" vType="car" speedFactor="0.93" vaporized=""/>
    <tripinfo id="flow_5_in.8" depart="25115.00" departLane="-687674693#1_0" departPos="0.20" departSpeed="5.45" departDelay="0.71" arrival="25745.00" arrivalLane="-687674693#1_0" arrivalPos="0.20" arrivalSpeed="3.40" duration="630.00" routeLength="3023.04" waitingTime="3.00" waitingCount="3" stopTime="45.00" timeLoss="138.58" rerouteNo="1" devices="tripinfo_flow_5_in.8 routing_flow_5_in.8 fcd_flow_5_in.8" vType="car" speedFactor="0.99" vaporized=""/>
    <tripinfo id="flow_10_in.15" depart="25110.00" departLane="-687674681_0" departPos="0.20" departSpeed="13.96" departDelay="0.06" arrival="25751.00" arrivalLane="-687674681_0" arrivalPos="0.20" arrivalSpeed="10.71" duration="641.00" routeLength="2925.56" waitingTime="5.00" waitingCount="5" stopTime="45.00" timeLoss="153.98" rerouteNo="2" devices="tripinfo_flow_10_in.15 routing_flow_10_in.15 fcd_flow_10_in.15" vType="car" speedFactor="1.01" vaporized=""/>
    <tripinfo id="flow_0_in.8" depart="25115.00" departLane="-690833056#0_0" departPos="5.10" departSpeed="16.28" departDelay="0.71" arrival="25760.00" arrivalLane="-690833056#0_0" arrivalPos="10.76" arrivalSpeed="9.52" duration="645.00" routeLength="3544.68" waitingTime="6.00" waitingCount="2" stopTime="45.00" timeLoss="174.07" rerouteNo="1" devices="tripinfo_flow_0_in.8 routing_flow_0_in.8 fcd_flow_0_in.8" vType="car" speedFactor="1.17" vaporized=""/>
    <tripinfo id="flow_15_in.1" depart="25183.00" departLane="27669864_0" departPos="0.20" departSpeed="4.12" departDelay="0.82" arrival="25841.00" arrivalLane="27669864_0" arrivalPos="0.20" arrivalSpeed="3.09" duration="658.00" routeLength="3692.58" waitingTime="2.00" waitingCount="2" stopTime="45.00" timeLoss="132.72" rerouteNo="1" devices="tripinfo_flow_15_in.1 routing_flow_15_in.1 fcd_flow_15_in.1" vType="car" speedFactor="1.02" vaporized=""/>
    <tripinfo id="flow_10_in.16" depart="25224.00" departLane="-687674681_0" departPos="0.20" departSpeed="13.52" departDelay="0.06" arrival="25864.00" arrivalLane="-687674681_0" arrivalPos="0.20" arrivalSpeed="10.12" duration="640.00" routeLength="2852.51" waitingTime="5.00" waitingCount="5" stopTime="45.00" timeLoss="145.73" rerouteNo="1" devices="tripinfo_flow_10_in.16 routing_flow_10_in.16 fcd_flow_10_in.16" vType="car" speedFactor="0.97" vaporized=""/>
    <tripinfo id="flow_5_in.9" depart="25329.00" departLane="-687674693#1_0" departPos="0.20" departSpeed="5.45" departDelay="0.43" arrival="25913.00" arrivalLane="-687674693#1_0" arrivalPos="0.20" arrivalSpeed="2.87" duration="584.00" routeLength="3023.04" waitingTime="3.00" waitingCount="3" stopTime="45.00" timeLoss="132.73" rerouteNo="1" devices="tripinfo_flow_5_in.9 routing_flow_5_in.9 fcd_flow_5_in.9" vType="car" speedFactor="1.10" vaporized=""/>
    <tripinfo id="flow_0_in.9" depart="25329.00" departLane="-690833056#0_0" departPos="5.10" departSpeed="16.39" departDelay="0.43" arrival="25923.00" arrivalLane="-690833056#0_0" arrivalPos="10.76" arrivalSpeed="9.66" duration="594.00" routeLength="3544.68" waitingTime="0.00" waitingCount="0" stopTime="45.00" timeLoss="126.69" rerouteNo="1" devices="tripinfo_flow_0_in.9 routing_flow_0_in.9 fcd_flow_0_in.9" vType="car" speedFactor="1.18" vaporized=""/>
    <tripinfo id="flow_10_in.17" depart="25338.00" departLane="-687674681_0" departPos="0.20" departSpeed="0.00" departDelay="0.07" arrival="26111.00" arrivalLane="-687674681_0" arrivalPos="0.20" arrivalSpeed="10.86" duration="773.00" routeLength="2852.51" waitingTime="91.00" waitingCount="7" stopTime="45.00" timeLoss="241.35" rerouteNo="1" devices="tripinfo_flow_10_in.17 routing_flow_10_in.17 fcd_flow_10_in.17" vType="car" speedFactor="0.90" vaporized=""/>
    <tripinfo id="flow_10_in.18" depart="25452.00" departLane="-687674681_0" departPos="0.20" departSpeed="0.00" departDelay="0.07" arrival="26116.00" arrivalLane="-687674681_0" arrivalPos="0.20" arrivalSpeed="10.43" duration="664.00" routeLength="2925.56" waitingTime="43.00" waitingCount="6" stopTime="45.00" timeLoss="188.23" rerouteNo="2" devices="tripinfo_flow_10_in.18 routing_flow_10_in.18 fcd_flow_10_in.18" vType="car" speedFactor="1.03" vaporized=""/>
    <tripinfo id="flow_5_in.10" depart="25543.00" departLane="-687674693#1_0" departPos="0.20" departSpeed="5.45" departDelay="0.14" arrival="26142.00" arrivalLane="-687674693#1_0" arrivalPos="0.20" arrivalSpeed="3.39" duration="599.00" routeLength="3023.04" waitingTime="6.00" waitingCount="3" stopTime="45.00" timeLoss="143.67" rerouteNo="1" devices="tripinfo_flow_5_in.10 routing_flow_5_in.10 fcd_flow_5_in.10" vType="car" speedFactor="1.09" vaporized=""/>
    <tripinfo id="flow_10_in.19" depart="25566.00" departLane="-687674681_0" departPos="0.20" departSpeed="14.42" departDelay="0.08" arrival="26201.00" arrivalLane="-687674681_0" arrivalPos="0.20" arrivalSpeed="11.80" duration="635.00" routeLength="2925.56" waitingTime="33.00" waitingCount="6" stopTime="45.00" timeLoss="162.64" rerouteNo="1" devices="tripinfo_flow_10_in.19 routing_flow_10_in.19 fcd_flow_10_in.19" vType="car" speedFactor="1.04" vaporized=""/>
    <tripinfo id="flow_0_in.10" depart="25543.00" departLane="-690833056#0_0" departPos="5.10" departSpeed="13.29" departDelay="0.14" arrival="26239.00" arrivalLane="-690833056#0_0" arrivalPos="10.76" arrivalSpeed="9.30" duration="696.00" routeLength="3544.68" waitingTime="1.00" waitingCount="1" stopTime="45.00" timeLoss="130.13" rerouteNo="1" devices="tripinfo_flow_0_in.10 routing_flow_0_in.10 fcd_flow_0_in.10" vType="car" speedFactor="0.96" vaporized=""/>
    <tripinfo id="flow_10_in.20" depart="25680.00" departLane="-687674681_0" departPos="0.20" departSpeed="14.49" departDelay="0.08" arrival="26292.00" arrivalLane="-687674681_0" arrivalPos="0.20" arrivalSpeed="10.20" duration="612.00" routeLength="2844.67" waitingTime="7.00" waitingCount="4" stopTime="45.00" timeLoss="146.74" rerouteNo="2" devices="tripinfo_flow_10_in.20 routing_flow_10_in.20 fcd_flow_10_in.20" vType="car" speedFactor="1.04" vaporized=""/>
    <tripinfo id="flow_5_in.11" depart="25758.00" departLane="-687674693#1_0" departPos="0.20" departSpeed="5.45" departDelay="0.85" arrival="26384.00" arrivalLane="-687674693#1_0" arrivalPos="0.20" arrivalSpeed="3.50" duration="626.00" routeLength="3023.04" waitingTime="3.00" waitingCount="3" stopTime="45.00" timeLoss="133.34" rerouteNo="1" devices="tripinfo_flow_5_in.11 routing_flow_5_in.11 fcd_flow_5_in.11" vType="car" speedFactor="1.00" vaporized=""/>
    <tripinfo id="flow_0_in.11" depart="25760.00" departLane="-690833056#0_0" departPos="5.10" departSpeed="15.11" departDelay="2.85" arrival="26397.00" arrivalLane="-690833056#0_0" arrivalPos="10.76" arrivalSpeed="8.66" duration="637.00" routeLength="3544.68" waitingTime="0.00" waitingCount="0" stopTime="45.00" timeLoss="134.91" rerouteNo="1" devices="tripinfo_flow_0_in.11 routing_flow_0_in.11 fcd_flow_0_in.11" vType="car" speedFactor="1.09" vaporized=""/>
    <tripinfo id="flow_10_in.21" depart="25794.00" departLane="-687674681_0" departPos="0.20" departSpeed="0.00" departDelay="0.08" arrival="26562.00" arrivalLane="-687674681_0" arrivalPos="0.20" arrivalSpeed="8.78" duration="768.00" routeLength="2852.51" waitingTime="81.00" waitingCount="6" stopTime="45.00" timeLoss="236.36" rerouteNo="1" devices="tripinfo_flow_10_in.21 routing_flow_10_in.21 fcd_flow_10_in.21" vType="car" speedFactor="0.90" vaporized=""/>
    <tripinfo id="flow_10_in.22" depart="25908.00" departLane="-687674681_0" departPos="0.20" departSpeed="0.00" departDelay="0.09" arrival="26652.00" arrivalLane="-687674681_0" arrivalPos="0.20" arrivalSpeed="10.53" duration="744.00" routeLength="2852.51" waitingTime="45.00" waitingCount="7" stopTime="45.00" timeLoss="197.78" rerouteNo="1" devices="tripinfo_flow_10_in.22 routing_flow_10_in.22 fcd_flow_10_in.22" vType="car" speedFactor="0.88" vaporized=""/>
    <tripinfo id="flow_10_in.23" depart="26022.00" departLane="-687674681_0" departPos="0.20" departSpeed="16.24" departDelay="0.09" arrival="26657.00" arrivalLane="-687674681_0" arrivalPos="0.20" arrivalSpeed="11.08" duration="635.00" routeLength="2925.56" waitingTime="5.00" waitingCount="5" stopTime="45.00" timeLoss="209.18" rerouteNo="2" devices="tripinfo_flow_10_in.23 routing_flow_10_in.23 fcd_flow_10_in.23" vType="car" speedFactor="1.17" vaporized=""/>
    <tripinfo id="flow_5_in.12" depart="25972.00" departLane="-687674693#1_0" departPos="0.20" departSpeed="5.45" departDelay="0.57" arrival="26678.00" arrivalLane="-687674693#1_0" arrivalPos="0.20" arrivalSpeed="2.93" duration="706.00" routeLength="3023.04" waitingTime="2.00" waitingCount="2" stopTime="45.00" timeLoss="142.04" rerouteNo="1" devices="tripinfo_flow_5_in.12 routing_flow_5_in.12 fcd_flow_5_in.12" vType="car" speedFactor="0.85" vaporized=""/>
    <tripinfo id="flow_6_in.0" depart="26100.00" departLane="-687674693#1_0" departPos="0.20" departSpeed="5.45" departDelay="0.00" arrival="26703.00" arrivalLane="-687674693#1_0" arrivalPos="0.20" arrivalSpeed="3.92" duration="603.00" routeLength="3023.04" waitingTime="2.00" waitingCount="2" stopTime="45.00" timeLoss="149.60" rerouteNo="1" devices="tripinfo_flow_6_in.0 routing_flow_6_in.0 fcd_flow_6_in.0" vType="car" speedFactor="1.10" vaporized=""/>
    <tripinfo id="flow_11_in.0" depart="26100.00" departLane="-687674681_0" departPos="0.20" departSpeed="13.93" departDelay="0.00" arrival="26741.00" arrivalLane="-687674681_0" arrivalPos="0.20" arrivalSpeed="11.89" duration="641.00" routeLength="2925.56" waitingTime="14.00" waitingCount="6" stopTime="45.00" timeLoss="152.24" rerouteNo="2" devices="tripinfo_flow_11_in.0 routing_flow_11_in.0 fcd_flow_11_in.0" vType="car" speedFactor="1.00" vaporized=""/>
    <tripinfo id="flow_0_in.12" depart="25972.00" departLane="-690833056#0_0" departPos="5.10" departSpeed="11.81" departDelay="0.57" arrival="26747.00" arrivalLane="-690833056#0_0" arrivalPos="10.76" arrivalSpeed="7.32" duration="775.00" routeLength="3544.68" waitingTime="0.00" waitingCount="0" stopTime="45.00" timeLoss="144.75" rerouteNo="1" devices="tripinfo_flow_0_in.12 routing_flow_0_in.12 fcd_flow_0_in.12" vType="car" speedFactor="0.85" vaporized=""/>
    <tripinfo id="flow_1_in.0" depart="26100.00" departLane="-690833056#0_0" departPos="5.10" departSpeed="14.12" departDelay="0.00" arrival="26772.00" arrivalLane="-690833056#0_0" arrivalPos="10.76" arrivalSpeed="10.73" duration="672.00" routeLength="3590.55" waitingTime="1.00" waitingCount="1" stopTime="45.00" timeLoss="132.97" rerouteNo="1" devices="tripinfo_flow_1_in.0 routing_flow_1_in.0 fcd_flow_1_in.0" vType="car" speedFactor="1.02" vaporized=""/>
    <tripinfo id="flow_16_in.0" depart="26100.00" departLane="27669864_0" departPos="0.20" departSpeed="4.12" departDelay="0.00" arrival="26780.00" arrivalLane="27669864_0" arrivalPos="0.20" arrivalSpeed="3.09" duration="680.00" routeLength="3692.58" waitingTime="2.00" waitingCount="2" stopTime="45.00" timeLoss="145.45" rerouteNo="1" devices="tripinfo_flow_16_in.0 routing_flow_16_in.0 fcd_flow_16_in.0" vType="car" speedFactor="1.00" vaporized=""/>
    <tripinfo id="flow_6_in.1" depart="26172.00" departLane="-687674693#1_0" departPos="0.20" departSpeed="5.45" departDelay="0.57" arrival="26824.00" arrivalLane="-687674693#1_0" arrivalPos="0.20" arrivalSpeed="3.52" duration="652.00" routeLength="3023.04" waitingTime="3.00" waitingCount="3" stopTime="45.00" timeLoss="171.27" rerouteNo="1" devices="tripinfo_flow_6_in.1 routing_flow_6_in.1 fcd_flow_6_in.1" vType="car" speedFactor="1.02" vaporized=""/>
    <tripinfo id="flow_11_in.1" depart="26138.00" departLane="-687674681_0" departPos="0.20" departSpeed="12.49" departDelay="0.01" arrival="26831.00" arrivalLane="-687674681_0" arrivalPos="0.20" arrivalSpeed="9.56" duration="693.00" routeLength="2852.51" waitingTime="14.00" waitingCount="5" stopTime="45.00" timeLoss="162.40" rerouteNo="1" devices="tripinfo_flow_11_in.1 routing_flow_11_in.1 fcd_flow_11_in.1" vType="car" speedFactor="0.90" vaporized=""/>
    <tripinfo id="flow_1_in.1" depart="26172.00" departLane="-690833056#0_0" departPos="5.10" departSpeed="15.87" departDelay="0.57" arrival="26872.00" arrivalLane="-690833056#0_0" arrivalPos="10.76" arrivalSpeed="8.28" duration="700.00" routeLength="3590.55" waitingTime="28.00" waitingCount="2" stopTime="45.00" timeLoss="214.10" rerouteNo="1" devices="tripinfo_flow_1_in.1 routing_flow_1_in.1 fcd_flow_1_in.1" vType="car" speedFactor="1.14" vaporized=""/>
    <tripinfo id="flow_6_in.2" depart="26243.00" departLane="-687674693#1_0" departPos="0.20" departSpeed="5.45" departDelay="0.14" arrival="26896.00" arrivalLane="-687674693#1_0" arrivalPos="0.20" arrivalSpeed="4.87" duration="653.00" routeLength="3023.04" waitingTime="2.00" waitingCount="2" stopTime="45.00" timeLoss="164.94" rerouteNo="1" devices="tripinfo_flow_6_in.2 routing_flow_6_in.2 fcd_flow_6_in.2" vType="car" speedFactor="1.02" vaporized=""/>
    <tripinfo id="flow_1_in.2" depart="26243.00" departLane="-690833056#0_0" departPos="5.10" departSpeed="15.55" departDelay="0.14" arrival="26907.00" arrivalLane="-690833056#0_0" arrivalPos="10.76" arrivalSpeed="9.23" duration="664.00" routeLength="3544.68" waitingTime="10.00" waitingCount="1" stopTime="45.00" timeLoss="173.49" rerouteNo="1" devices="tripinfo_flow_1_in.2 routing_flow_1_in.2 fcd_flow_1_in.2" vType="car" speedFactor="1.12" vaporized=""/>
    <tripinfo id="flow_11_in.2" depart="26176.00" departLane="-687674681_0" departPos="0.20" departSpeed="0.00" departDelay="0.01" arrival="26914.00" arrivalLane="-687674681_0" arrivalPos="0.20" arrivalSpeed="7.80" duration="738.00" routeLength="2925.56" waitingTime="89.00" waitingCount="7" stopTime="45.00" timeLoss="234.19" rerouteNo="1" devices="tripinfo_flow_11_in.2 routing_flow_11_in.2 fcd_flow_11_in.2" vType="car" speedFactor="0.97" vaporized=""/>