<?xml version="1.0" encoding="UTF-8"?>

<!-- generated on 2026-04-01T17:02:44.786596+02:00 by Eclipse SUMO sumo 1.26.0
<sumoConfiguration xmlns:xsi="http://www.w3.org/2001/XMLSchema-instance" xsi:noNamespaceSchemaLocation="http://sumo.dlr.de/xsd/sumoConfiguration.xsd">

    <input>
        <net-file value="C:\Users\neill\Github\tokai-sim\sim\sumo\bergvliet.net.xml"/>
        <route-files value="C:\Users\neill\Github\tokai-sim\sim\sumo\demand-M.rou.xml"/>
        <additional-files value="C:\Users\neill\Github\tokai-sim\sim\sumo\speed-humps.add.xml"/>
    </input>

    <output>
        <fcd-output value="C:\Users\neill\Github\tokai-sim\sim\sumo\fcd-M.xml"/>
        <tripinfo-output value="C:\Users\neill\Github\tokai-sim\sim\sumo\tripinfo-M.xml"/>
    </output>

    <time>
        <begin value="23400"/>
        <end value="30600"/>
        <step-length value="1"/>
    </time>

    <processing>
        <ignore-route-errors value="true"/>
    </processing>

    <routing>
        <routing-algorithm value="astar"/>
        <device.rerouting.probability value="1.0"/>
        <device.rerouting.period value="60"/>
        <device.rerouting.pre-period value="0"/>
    </routing>

    <report>
        <no-warnings value="true"/>
        <no-step-log value="true"/>
    </report>

    <fcd_device>
        <device.fcd.period value="60"/>
    </fcd_device>

</sumoConfiguration>
-->

<tripinfos xmlns:xsi="http://www.w3.org/2001/XMLSchema-instance" xsi:noNamespaceSchemaLocation="http://sumo.dlr.de/xsd/tripinfo_file.xsd">
    <tripinfo id="flow_5_in.0" depart="23400.00" departLane="-687674693#1_0" departPos="0.20" departSpeed="5.45" departDelay="0.00" arrival="24055.00" arrivalLane="-687674693#1_0" arrivalPos="0.20" arrivalSpeed="2.85" duration="655.00" routeLength="3023.04" waitingTime="2.00" waitingCount="2" stopTime="45.00" timeLoss="135.79" rerouteNo="1" devices="tripinfo_flow_5_in.0 routing_flow_5_in.0 fcd_flow_5_in.0" vType="car" speedFactor="0.94" vaporized=""/>
    <tripinfo id="flow_10_in.0" depart="23400.00" departLane="-687674681_0" departPos="0.20" departSpeed="14.03" departDelay="0.00" arrival="24056.00" arrivalLane="-687674681_0" arrivalPos="0.20" arrivalSpeed="9.84" duration="656.00" routeLength="2925.56" waitingTime="5.00" waitingCount="5" stopTime="45.00" timeLoss="169.89" rerouteNo="1" devices="tripinfo_flow_10_in.0 routing_flow_10_in.0 fcd_flow_10_in.0" vType="car" speedFactor="1.01" vaporized=""/>
    <tripinfo id="flow_0_in.0" depart="23400.00" departLane="-690833056#0_0" departPos="5.10" departSpeed="14.72" departDelay="0.00" arrival="24084.00" arrivalLane="-690833056#0_0" arrivalPos="10.76" arrivalSpeed="8.98" duration="684.00" routeLength="3544.68" waitingTime="8.00" waitingCount="1" stopTime="45.00" timeLoss="168.08" rerouteNo="1" devices="tripinfo_flow_0_in.0 routing_flow_0_in.0 fcd_flow_0_in.0" vType="car" speedFactor="1.06" vaporized=""/>
    <tripinfo id="flow_15_in.0" depart="23400.00" departLane="27669864_0" departPos="0.20" departSpeed="4.12" departDelay="0.00" arrival="24088.00" arrivalLane="27669864_0" arrivalPos="0.20" arrivalSpeed="4.53" duration="688.00" routeLength="3692.58" waitingTime="2.00" waitingCount="2" stopTime="45.00" timeLoss="187.34" rerouteNo="1" devices="tripinfo_flow_15_in.0 routing_flow_15_in.0 fcd_flow_15_in.0" vType="car" speedFactor="1.08" vaporized=""/>
    <tripinfo id="flow_10_in.1" depart="23480.00" departLane="-687674681_0" departPos="0.20" departSpeed="0.00" departDelay="0.88" arrival="24132.00" arrivalLane="-687674681_0" arrivalPos="0.20" arrivalSpeed="10.87" duration="652.00" routeLength="2852.51" waitingTime="42.00" waitingCount="7" stopTime="45.00" timeLoss="181.38" rerouteNo="1" devices="tripinfo_flow_10_in.1 routing_flow_10_in.1 fcd_flow_10_in.1" vType="car" speedFactor="1.03" vaporized=""/>
    <tripinfo id="flow_5_in.1" depart="23539.00" departLane="-687674693#1_0" departPos="0.20" departSpeed="5.45" departDelay="0.54" arrival="24237.00" arrivalLane="-687674693#1_0" arrivalPos="0.20" arrivalSpeed="2.02" duration="698.00" routeLength="3023.04" waitingTime="2.00" waitingCount="2" stopTime="45.00" timeLoss="150.80" rerouteNo="1" devices="tripinfo_flow_5_in.1 routing_flow_5_in.1 fcd_flow_5_in.1" vType="car" speedFactor="0.89" vaporized=""/>
    <tripinfo id="flow_15_in.1" depart="23532.00" departLane="27669864_0" departPos="0.20" departSpeed="4.12" departDelay="0.13" arrival="24271.00" arrivalLane="27669864_0" arrivalPos="0.20" arrivalSpeed="2.82" duration="739.00" routeLength="3692.58" waitingTime="2.00" waitingCount="2" stopTime="45.00" timeLoss="222.31" rerouteNo="1" devices="tripinfo_flow_15_in.1 routing_flow_15_in.1 fcd_flow_15_in.1" vType="car" speedFactor="1.05" vaporized=""/>
    <tripinfo id="flow_5_in.2" depart="23677.00" departLane="-687674693#1_0" departPos="0.20" departSpeed="5.45" departDelay="0.08" arrival="24299.00" arrivalLane="-687674693#1_0" arrivalPos="0.20" arrivalSpeed="3.53" duration="622.00" routeLength="3023.04" waitingTime="3.00" waitingCount="3" stopTime="45.00" timeLoss="149.76" rerouteNo="1" devices="tripinfo_flow_5_in.2 routing_flow_5_in.2 fcd_flow_5_in.2" vType="car" speedFactor="1.05" vaporized=""/>
    <tripinfo id="flow_0_in.1" depart="23516.00" departLane="-690833056#0_0" departPos="5.10" departSpeed="11.54" departDelay="0.62" arrival="24309.00" arrivalLane="-690833056#0_0" arrivalPos="10.76" arrivalSpeed="7.88" duration="793.00" routeLength="3544.68" waitingTime="0.00" waitingCount="0" stopTime="45.00" timeLoss="148.67" rerouteNo="1" devices="tripinfo_flow_0_in.1 routing_flow_0_in.1 fcd_flow_0_in.1" vType="car" speedFactor="0.83" vaporized=""/>
    <tripinfo id="flow_10_in.2" depart="23559.00" departLane="-687674681_0" departPos="0.20" departSpeed="0.00" departDelay="0.76" arrival="24311.00" arrivalLane="-687674681_0" arrivalPos="0.20" arrivalSpeed="10.93" duration="752.00" routeLength="2852.51" waitingTime="57.00" waitingCount="6" stopTime="45.00" timeLoss="240.89" rerouteNo="1" devices="tripinfo_flow_10_in.2 routing_flow_10_in.2 fcd_flow_10_in.2" vType="car" speedFactor="0.94" vaporized=""/>
    <tripinfo id="flow_10_in.3" depart="23638.00" departLane="-687674681_0" departPos="0.20" departSpeed="0.00" departDelay="0.64" arrival="24315.00" arrivalLane="-687674681_0" arrivalPos="0.20" arrivalSpeed="10.55" duration="677.00" routeLength="2925.56" waitingTime="66.00" waitingCount="6" stopTime="45.00" timeLoss="224.72" rerouteNo="1" devices="tripinfo_flow_10_in.3 routing_flow_10_in.3 fcd_flow_10_in.3" vType="car" speedFactor="1.09" vaporized=""/>
    <tripinfo id="flow_15_in.2" depart="23664.00" departLane="27669864_0" departPos="0.20" departSpeed="4.12" departDelay="0.26" arrival="24323.00" arrivalLane="27669864_0" arrivalPos="0.20" arrivalSpeed="3.48" duration="659.00" routeLength="3692.58" waitingTime="2.00" waitingCount="2" stopTime="45.00" timeLoss="136.17" rerouteNo="1" devices="tripinfo_flow_15_in.2 routing_flow_15_in.2 fcd_flow_15_in.2" vType="car" speedFactor="1.03" vaporized=""/>
    <tripinfo id="flow_10_in.4" depart="23717.00" departLane="-687674681_0" departPos="0.20" departSpeed="0.00" departDelay="0.52" arrival="24401.00" arrivalLane="-687674681_0" arrivalPos="0.20" arrivalSpeed="9.63" duration="684.00" routeLength="2917.72" waitingTime="71.00" waitingCount="5" stopTime="45.00" timeLoss="243.94" rerouteNo="2" devices="tripinfo_flow_10_in.4 routing_flow_10_in.4 fcd_flow_10_in.4" vType="car" speedFactor="1.12" vaporized=""/>
    <tripinfo id="flow_0_in.2" depart="23631.00" departLane="-690833056#0_0" departPos="5.10" departSpeed="11.90" departDelay="0.23" arrival="24417.00" arrivalLane="-690833056#0_0" arrivalPos="10.76" arrivalSpeed="8.86" duration="786.00" routeLength="3544.68" waitingTime="14.00" waitingCount="1" stopTime="45.00" timeLoss="158.49" rerouteNo="1" devices="tripinfo_flow_0_in.2 routing_flow_0_in.2 fcd_flow_0_in.2" vType="car" speedFactor="0.86" vaporized=""/>
    <tripinfo id="flow_0_in.3" depart="23747.00" departLane="-690833056#0_0" departPos="5.10" departSpeed="13.77" departDelay="0.85" arrival="24428.00" arrivalLane="-690833056#0_0" arrivalPos="10.76" arrivalSpeed="9.59" duration="681.00" routeLength="3590.55" waitingTime="1.00" waitingCount="1" stopTime="45.00" timeLoss="130.83" rerouteNo="1" devices="tripinfo_flow_0_in.3 routing_flow_0_in.3 fcd_flow_0_in.3" vType="car" speedFactor="0.99" vaporized=""/>
    <tripinfo id="flow_10_in.5" depart="23796.00" departLane="-687674681_0" departPos="0.20" departSpeed="12.87" departDelay="0.40" arrival="24491.00" arrivalLane="-687674681_0" arrivalPos="0.20" arrivalSpeed="10.25" duration="695.00" routeLength="2852.51" waitingTime="24.00" waitingCount="5" stopTime="45.00" timeLoss="178.84" rerouteNo="1" devices="tripinfo_flow_10_in.5 routing_flow_10_in.5 fcd_flow_10_in.5" vType="car" speedFactor="0.93" vaporized=""/>
    <tripinfo id="flow_10_in.6" depart="23875.00" departLane="-687674681_0" departPos="0.20" departSpeed="16.09" departDelay="0.27" arrival="24499.00" arrivalLane="-687674681_0" arrivalPos="0.20" arrivalSpeed="11.37" duration="624.00" routeLength="2917.72" waitingTime="4.00" waitingCount="4" stopTime="45.00" timeLoss="197.36" rerouteNo="2" devices="tripinfo_flow_10_in.6 routing_flow_10_in.6 fcd_flow_10_in.6" vType="car" speedFactor="1.16" vaporized=""/>
    <tripinfo id="flow_5_in.3" depart="23816.00" departLane="-687674693#1_0" departPos="0.20" departSpeed="5.45" departDelay="0.61" arrival="24512.00" arrivalLane="-687674693#1_0" arrivalPos="0.20" arrivalSpeed="4.76" duration="696.00" routeLength="3023.04" waitingTime="2.00" waitingCount="2" stopTime="45.00" timeLoss="178.82" rerouteNo="1" devices="tripinfo_flow_5_in.3 routing_flow_5_in.3 fcd_flow_5_in.3" vType="car" speedFactor="0.94" vaporized=""/>
    <tripinfo id="flow_15_in.3" depart="23796.00" departLane="27669864_0" departPos="0.20" departSpeed="4.12" departDelay="0.40" arrival="24543.00" arrivalLane="27669864_0" arrivalPos="0.20" arrivalSpeed="3.20" duration="747.00" routeLength="3692.58" waitingTime="2.00" waitingCount="2" stopTime="45.00" timeLoss="147.58" rerouteNo="1" devices="tripinfo_flow_15_in.3 routing_flow_15_in.3 fcd_flow_15_in.3" vType="car" speedFactor="0.88" vaporized=""/>
    <tripinfo id="flow_5_in.4" depart="23954.00" departLane="-687674693#1_0" departPos="0.20" departSpeed="5.45" departDelay="0.15" arrival="24593.00" arrivalLane="-687674693#1_0" arrivalPos="0.20" arrivalSpeed="2.53" duration="639.00" routeLength="3023.04" waitingTime="3.00" waitingCount="3" stopTime="45.00" timeLoss="153.08" rerouteNo="1" devices="tripinfo_flow_5_in.4 routing_flow_5_in.4 fcd_flow_5_in.4" vType="car" speedFactor="1.01" vaporized=""/>
    <tripinfo id="flow_10_in.7" depart="23954.00" departLane="-687674681_0" departPos="0.20" departSpeed="13.54" departDelay="0.15" arrival="24599.00" arrivalLane="-687674681_0" arrivalPos="0.20" arrivalSpeed="9.97" duration="645.00" routeLength="2925.56" waitingTime="5.00" waitingCount="5" stopTime="45.00" timeLoss="145.20" rerouteNo="1" devices="tripinfo_flow_10_in.7 routing_flow_10_in.7 fcd_flow_10_in.7" vType="car" speedFactor="0.97" vaporized=""/>
    <tripinfo id="flow_0_in.4" depart="23862.00" departLane="-690833056#0_0" departPos="5.10" departSpeed="13.00" departDelay="0.46" arrival="24603.00" arrivalLane="-690833056#0_0" arrivalPos="10.76" arrivalSpeed="7.49" duration="741.00" routeLength="3544.68" waitingTime="35.00" waitingCount="1" stopTime="45.00" timeLoss="164.11" rerouteNo="1" devices="tripinfo_flow_0_in.4 routing_flow_0_in.4 fcd_flow_0_in.4" vType="car" speedFactor="0.94" vaporized=""/>
    <tripinfo id="flow_15_in.4" depart="23928.00" departLane="27669864_0" departPos="0.20" departSpeed="4.12" departDelay="0.53" arrival="24614.00" arrivalLane="27669864_0" arrivalPos="0.20" arrivalSpeed="3.61" duration="686.00" routeLength="3692.58" waitingTime="2.00" waitingCount="2" stopTime="45.00" timeLoss="159.80" rerouteNo="1" devices="tripinfo_flow_15_in.4 routing_flow_15_in.4 fcd_flow_15_in.4" vType="car" speedFactor="1.02" vaporized=""/>
    <tripinfo id="flow_0_in.5" depart="23977.00" departLane="-690833056#0_0" departPos="5.10" departSpeed="12.36" departDelay="0.08" arrival="24722.00" arrivalLane="-690833056#0_0" arrivalPos="10.76" arrivalSpeed="8.98" duration="745.00" routeLength="3544.68" waitingTime="0.00" waitingCount="0" stopTime="45.00" timeLoss="140.65" rerouteNo="1" devices="tripinfo_flow_0_in.5 routing_flow_0_in.5 fcd_flow_0_in.5" vType="car" speedFactor="0.89" vaporized=""/>
    <tripinfo id="flow_10_in.8" depart="24033.00" departLane="-687674681_0" departPos="0.20" departSpeed="11.47" departDelay="0.03" arrival="24771.00" arrivalLane="-687674681_0" arrivalPos="0.20" arrivalSpeed="10.19" duration="738.00" routeLength="2852.51" waitingTime="4.00" waitingCount="4" stopTime="45.00" timeLoss="162.65" rerouteNo="1" devices="tripinfo_flow_10_in.8 routing_flow_10_in.8 fcd_flow_10_in.8" vType="car" speedFactor="0.83" vaporized=""/>
    <tripinfo id="flow_5_in.5" depart="24093.00" departLane="-687674693#1_0" departPos="0.20" departSpeed="5.45" departDelay="0.69" arrival="24819.00" arrivalLane="-687674693#1_0" arrivalPos="0.20" arrivalSpeed="2.74" duration="726.00" routeLength="3023.04" waitingTime="34.00" waitingCount="4" stopTime="45.00" timeLoss="210.07" rerouteNo="1" devices="tripinfo_flow_5_in.5 routing_flow_5_in.5 fcd_flow_5_in.5" vType="car" speedFactor="0.95" vaporized=""/>
    <tripinfo id="flow_10_in.9" depart="24113.00" departLane="-687674681_0" departPos="0.20" departSpeed="0.00" departDelay="0.91" arrival="24850.00" arrivalLane="-687674681_0" arrivalPos="0.20" arrivalSpeed="9.97" duration="737.00" routeLength="2925.56" waitingTime="58.00" waitingCount="7" stopTime="45.00" timeLoss="296.04" rerouteNo="2" devices="tripinfo_flow_10_in.9 routing_flow_10_in.9 fcd_flow_10_in.9" vType="car" speedFactor="1.13" vaporized=""/>
    <tripinfo id="flow_15_in.5" depart="24060.00" departLane="27669864_0" departPos="0.20" departSpeed="4.12" departDelay="0.66" arrival="24853.00" arrivalLane="27669864_0" arrivalPos="0.20" arrivalSpeed="2.53" duration="793.00" routeLength="3692.58" waitingTime="37.00" waitingCount="3" stopTime="45.00" timeLoss="188.06" rerouteNo="1" devices="tripinfo_flow_15_in.5 routing_flow_15_in.5 fcd_flow_15_in.5" vType="car" speedFactor="0.87" vaporized=""/>
    <tripinfo id="flow_15_in.6" depart="24192.00" departLane="27669864_0" departPos="0.20" departSpeed="4.12" departDelay="0.79" arrival="24860.00" arrivalLane="27669864_0" arrivalPos="0.20" arrivalSpeed="3.47" duration="668.00" routeLength="3692.58" waitingTime="2.00" waitingCount="2" stopTime="45.00" timeLoss="199.76" rerouteNo="1" devices="tripinfo_flow_15_in.6 routing_flow_15_in.6 fcd_flow_15_in.6" vType="car" speedFactor="1.18" vaporized=""/>
    <tripinfo id="flow_0_in.6" depart="24093.00" departLane="-690833056#0_0" departPos="5.10" departSpeed="12.74" departDelay="0.69" arrival="24862.00" arrivalLane="-690833056#0_0" arrivalPos="10.76" arrivalSpeed="7.93" duration="769.00" routeLength="3590.55" waitingTime="2.00" waitingCount="2" stopTime="45.00" timeLoss="173.61" rerouteNo="1" devices="tripinfo_flow_0_in.6 routing_flow_0_in.6 fcd_flow_0_in.6" vType="car" speedFactor="0.92" vaporized=""/>
    <tripinfo id="flow_10_in.10" depart="24192.00" departLane="-687674681_0" departPos="0.20" departSpeed="0.00" departDelay="0.79" arrival="24877.00" arrivalLane="-687674681_0" arrivalPos="0.20" arrivalSpeed="10.99" duration="685.00" routeLength="2925.56" waitingTime="21.00" waitingCount="5" stopTime="45.00" timeLoss="164.31" rerouteNo="1" devices="tripinfo_flow_10_in.10 routing_flow_10_in.10 fcd_flow_10_in.10" vType="car" speedFactor="0.93" vaporized=""/>
    <tripinfo id="flow_0_in.7" depart="24208.00" departLane="-690833056#0_0" departPos="5.10" departSpeed="16.03" departDelay="0.31" arrival="24886.00" arrivalLane="-690833056#0_0" arrivalPos="10.76" arrivalSpeed="8.23" duration="678.00" routeLength="3590.55" waitingTime="62.00" waitingCount="3" stopTime="45.00" timeLoss="195.77" rerouteNo="1" devices="tripinfo_flow_0_in.7 routing_flow_0_in.7 fcd_flow_0_in.7" vType="car" speedFactor="1.15" vaporized=""/>
    <tripinfo id="flow_5_in.6" depart="24231.00" departLane="-687674693#1_0" departPos="0.20" departSpeed="5.45" departDelay="0.23" arrival="24918.00" arrivalLane="-687674693#1_0" arrivalPos="0.20" arrivalSpeed="3.26" duration="687.00" routeLength="3023.04" waitingTime="60.00" waitingCount="5" stopTime="45.00" timeLoss="198.95" rerouteNo="1" devices="tripinfo_flow_5_in.6 routing_flow_5_in.6 fcd_flow_5_in.6" vType="car" speedFactor="1.01" vaporized=""/>
    <tripinfo id="flow_10_in.11" depart="24271.00" departLane="-687674681_0" departPos="0.20" departSpeed="0.00" departDelay="0.67" arrival="24941.00" arrivalLane="-687674681_0" arrivalPos="0.20" arrivalSpeed="10.46" duration="670.00" routeLength="2852.51" waitingTime="55.00" waitingCount="7" stopTime="45.00" timeLoss="249.70" rerouteNo="2" devices="tripinfo_flow_10_in.11 routing_flow_10_in.11 fcd_flow_10_in.11" vType="car" speedFactor="1.17" vaporized=""/>
    <tripinfo id="flow_5_in.7" depart="24370.00" departLane="-687674693#1_0" departPos="0.20" departSpeed="5.45" departDelay="0.77" arrival="24977.00" arrivalLane="-687674693#1_0" arrivalPos="0.20" arrivalSpeed="4.18" duration="607.00" routeLength="3023.04" waitingTime="3.00" waitingCount="3" stopTime="45.00" timeLoss="181.94" rerouteNo="1" devices="tripinfo_flow_5_in.7 routing_flow_5_in.7 fcd_flow_5_in.7" vType="car" speedFactor="1.18" vaporized=""/>
    <tripinfo id="flow_15_in.7" depart="24324.00" departLane="27669864_0" departPos="0.20" departSpeed="4.12" departDelay="0.92" arrival="24985.00" arrivalLane="27669864_0" arrivalPos="0.20" arrivalSpeed="3.36" duration="661.00" routeLength="3692.58" waitingTime="2.00" waitingCount="2" stopTime="45.00" timeLoss="136.07" rerouteNo="1" devices="tripinfo_flow_15_in.7 routing_flow_15_in.7 fcd_flow_15_in.7" vType="car" speedFactor="1.02" vaporized=""/>
    <tripinfo id="flow_0_in.8" depart="24324.00" departLane="-690833056#0_0" departPos="5.10" departSpeed="13.82" departDelay="0.92" arrival="24999.00" arrivalLane="-690833056#0_0" arrivalPos="10.76" arrivalSpeed="9.21" duration="675.00" routeLength="3544.68" waitingTime="0.00" waitingCount="0" stopTime="45.00" timeLoss="130.96" rerouteNo="1" devices="tripinfo_flow_0_in.8 routing_flow_0_in.8 fcd_flow_0_in.8" vType="car" speedFactor="0.99" vaporized=""/>
    <tripinfo id="flow_10_in.12" depart="24350.00" departLane="-687674681_0" departPos="0.20" departSpeed="0.00" departDelay="0.55" arrival="25050.00" arrivalLane="-687674681_0" arrivalPos="0.20" arrivalSpeed="10.51" duration="700.00" routeLength="2852.51" waitingTime="59.00" waitingCount="6" stopTime="45.00" timeLoss="204.68" rerouteNo="1" devices="tripinfo_flow_10_in.12 routing_flow_10_in.12 fcd_flow_10_in.12" vType="car" speedFactor="0.97" vaporized=""/>
    <tripinfo id="flow_15_in.8" depart="24455.00" departLane="27669864_0" departPos="0.20" departSpeed="4.12" departDelay="0.06" arrival="25109.00" arrivalLane="27669864_0" arrivalPos="0.20" arrivalSpeed="4.89" duration="654.00" routeLength="3692.58" waitingTime="2.00" waitingCount="2" stopTime="45.00" timeLoss="133.98" rerouteNo="1" devices="tripinfo_flow_15_in.8 routing_flow_15_in.8 fcd_flow_15_in.8" vType="car" speedFactor="1.03" vaporized=""/>
    <tripinfo id="flow_10_in.13" depart="24429.00" departLane="-687674681_0" departPos="0.20" departSpeed="0.00" departDelay="0.43" arrival="25132.00" arrivalLane="-687674681_0" arrivalPos="0.20" arrivalSpeed="11.96" duration="703.00" routeLength="2853.96" waitingTime="53.00" waitingCount="4" stopTime="45.00" timeLoss="259.81" rerouteNo="3" devices="tripinfo_flow_10_in.13 routing_flow_10_in.13 fcd_flow_10_in.13" vType="car" speedFactor="1.10" vaporized=""/>
    <tripinfo id="flow_10_in.14" depart="24508.00" departLane="-687674681_0" departPos="0.20" departSpeed="15.17" departDelay="0.31" arrival="25139.00" arrivalLane="-687674681_0" arrivalPos="0.20" arrivalSpeed="9.82" duration="631.00" routeLength="2850.76" waitingTime="3.00" waitingCount="3" stopTime="45.00" timeLoss="184.70" rerouteNo="2" devices="tripinfo_flow_10_in.14 routing_flow_10_in.14 fcd_flow_10_in.14" vType="car" speedFactor="1.09" vaporized=""/>
    <tripinfo id="flow_5_in.8" depart="24512.00" departLane="-687674693#1_0" departPos="0.20" departSpeed="5.45" departDelay="4.30" arrival="25168.00" arrivalLane="-687674693#1_0" arrivalPos="0.20" arrivalSpeed="2.54" duration="656.00" routeLength="3023.04" waitingTime="2.00" waitingCount="2" stopTime="45.00" timeLoss="146.86" rerouteNo="1" devices="tripinfo_flow_5_in.8 routing_flow_5_in.8 fcd_flow_5_in.8" vType="car" speedFactor="0.96" vaporized=""/>
    <tripinfo id="flow_0_in.9" depart="24439.00" departLane="-690833056#0_0" departPos="5.10" departSpeed="12.51" departDelay="0.54" arrival="25171.00" arrivalLane="-690833056#0_0" arrivalPos="10.76" arrivalSpeed="7.58" duration="732.00" routeLength="3544.68" waitingTime="0.00" waitingCount="0" stopTime="45.00" timeLoss="135.19" rerouteNo="1" devices="tripinfo_flow_0_in.9 routing_flow_0_in.9 fcd_flow_0_in.9" vType="car" speedFactor="0.90" vaporized=""/>
    <tripinfo id="flow_0_in.10" depart="24554.00" departLane="-690833056#0_0" departPos="5.10" departSpeed="14.42" departDelay="0.15" arrival="25209.00" arrivalLane="-690833056#0_0" arrivalPos="10.76" arrivalSpeed="8.64" duration="655.00" routeLength="3590.55" waitingTime="1.00" waitingCount="1" stopTime="45.00" timeLoss="125.93" rerouteNo="1" devices="tripinfo_flow_0_in.10 routing_flow_0_in.10 fcd_flow_0_in.10" vType="car" speedFactor="1.04" vaporized=""/>
    <tripinfo id="flow_10_in.15" depart="24587.00" departLane="-687674681_0" departPos="0.20" departSpeed="14.49" departDelay="0.19" arrival="25210.00" arrivalLane="-687674681_0" arrivalPos="0.20" arrivalSpeed="9.56" duration="623.00" routeLength="2925.56" waitingTime="11.00" waitingCount="5" stopTime="45.00" timeLoss="152.94" rerouteNo="4" devices="tripinfo_flow_10_in.15 routing_flow_10_in.15 fcd_flow_10_in.15" vType="car" speedFactor="1.04" vaporized=""/>
    <tripinfo id="flow_15_in.9" depart="24587.00" departLane="27669864_0" departPos="0.20" departSpeed="4.12" departDelay="0.19" arrival="25242.00" arrivalLane="27669864_0" arrivalPos="0.20" arrivalSpeed="3.46" duration="655.00" routeLength="3692.58" waitingTime="3.00" waitingCount="3" stopTime="45.00" timeLoss="154.96" rerouteNo="1" devices="tripinfo_flow_15_in.9 routing_flow_15_in.9 fcd_flow_15_in.9" vType="car" speedFactor="1.09" vaporized=""/>
    <tripinfo id="flow_5_in.9" depart="24647.00" departLane="-687674693#1_0" departPos="0.20" departSpeed="5.45" departDelay="0.84" arrival="25271.00" arrivalLane="-687674693#1_0" arrivalPos="0.20" arrivalSpeed="3.20" duration="624.00" routeLength="3023.04" waitingTime="2.00" waitingCount="2" stopTime="45.00" timeLoss="134.69" rerouteNo="1" devices="tripinfo_flow_5_in.9 routing_flow_5_in.9 fcd_flow_5_in.9" vType="car" speedFactor="1.00" vaporized=""/>
    <tripinfo id="flow_10_in.16" depart="24666.00" departLane="-687674681_0" departPos="0.20" departSpeed="12.51" departDelay="0.06" arrival="25392.00" arrivalLane="-687674681_0" arrivalPos="0.20" arrivalSpeed="11.38" duration="726.00" routeLength="2925.56" waitingTime="44.00" waitingCount="5" stopTime="45.00" timeLoss="187.86" rerouteNo="1" devices="tripinfo_flow_10_in.16 routing_flow_10_in.16 fcd_flow_10_in.16" vType="car" speedFactor="0.90" vaporized=""/>
    <tripinfo id="flow_0_in.11" depart="24670.00" departLane="-690833056#0_0" departPos="5.10" departSpeed="12.18" departDelay="0.77" arrival="25419.00" arrivalLane="-690833056#0_0" arrivalPos="10.76" arrivalSpeed="7.37" duration="749.00" routeLength="3544.68" waitingTime="0.00" waitingCount="0" stopTime="45.00" timeLoss="136.25" rerouteNo="1" devices="tripinfo_flow_0_in.11 routing_flow_0_in.11 fcd_flow_0_in.11" vType="car" speedFactor="0.88" vaporized=""/>
    <tripinfo id="flow_5_in.10" depart="24785.00" departLane="-687674693#1_0" departPos="0.20" departSpeed="5.45" departDelay="0.38" arrival="25474.00" arrivalLane="-687674693#1_0" arrivalPos="0.20" arrivalSpeed="2.46" duration="689.00" routeLength="3023.04" waitingTime="2.00" waitingCount="2" stopTime="45.00" timeLoss="205.55" rerouteNo="1" devices="tripinfo_flow_5_in.10 routing_flow_5_in.10 fcd_flow_5_in.10" vType="car" speedFactor="1.02" vaporized=""/>
    <tripinfo id="flow_10_in.17" depart="24746.00" departLane="-687674681_0" departPos="0.20" departSpeed="0.00" departDelay="0.94" arrival="25486.00" arrivalLane="-687674681_0" arrivalPos="0.20" arrivalSpeed="9.80" duration="740.00" routeLength="2852.51" waitingTime="19.00" waitingCount="6" stopTime="45.00" timeLoss="181.86" rerouteNo="1" devices="tripinfo_flow_10_in.17 routing_flow_10_in.17 fcd_flow_10_in.17" vType="car" speedFactor="0.85" vaporized=""/>
    <tripinfo id="flow_0_in.12" depart="24785.00" departLane="-690833056#0_0" departPos="5.10" departSpeed="16.24" departDelay="0.38" arrival="25488.00" arrivalLane="-690833056#0_0" arrivalPos="10.76" arrivalSpeed="7.34" duration="703.00" routeLength="3544.68" waitingTime="1.00" waitingCount="1" stopTime="45.00" timeLoss="229.44" rerouteNo="1" devices="tripinfo_flow_0_in.12 routing_flow_0_in.12 fcd_flow_0_in.12" vType="car" speedFactor="1.17" vaporized=""/>
    <tripinfo id="flow_10_in.18" depart="24825.00" departLane="-687674681_0" departPos="0.20" departSpeed="0.00" departDelay="0.82" arrival="25489.00" arrivalLane="-687674681_0" arrivalPos="0.20" arrivalSpeed="10.30" duration="664.00" routeLength="2925.56" waitingTime="18.00" waitingCount="5" stopTime="45.00" timeLoss="214.15" rerouteNo="2" devices="tripinfo_flow_10_in.18 routing_flow_10_in.18 fcd_flow_10_in.18" vType="car" speedFactor="1.10" vaporized=""/>
    <tripinfo id="flow_15_in.10" depart="24719.00" departLane="27669864_0" departPos="0.20" departSpeed="4.12" departDelay="0.32" arrival="25508.00" arrivalLane="27669864_0" arrivalPos="0.20" arrivalSpeed="3.05" duration="789.00" routeLength="3692.58" waitingTime="23.00" waitingCount="3" stopTime="45.00" timeLoss="169.57" rerouteNo="1" devices="tripinfo_flow_15_in.10 routing_flow_15_in.10 fcd_flow_15_in.10" vType="car" speedFactor="0.85" vaporized=""/>
    <tripinfo id="flow_5_in.11" depart="24924.00" departLane="-687674693#1_0" departPos="0.20" departSpeed="5.45" departDelay="0.92" arrival="25511.00" arrivalLane="-687674693#1_0" arrivalPos="0.20" arrivalSpeed="3.05" duration="587.00" routeLength="3023.04" waitingTime="14.00" waitingCount="3" stopTime="45.00" timeLoss="147.27" rerouteNo="1" devices="tripinfo_flow_5_in.11 routing_flow_5_in.11 fcd_flow_5_in.11" vType="car" speedFactor="1.14" vaporized=""/>
    <tripinfo id="flow_15_in.11" depart="24853.00" departLane="27669864_0" departPos="0.20" departSpeed="4.12" departDelay="2.45" arrival="25540.00" arrivalLane="27669864_0" arrivalPos="0.20" arrivalSpeed="3.31" duration="687.00" routeLength="3692.58" waitingTime="4.00" waitingCount="3" stopTime="45.00" timeLoss="156.12" rerouteNo="1" devices="tripinfo_flow_15_in.11 routing_flow_15_in.11 fcd_flow_15_in.11" vType="car" speedFactor="1.00" vaporized=""/>
    <tripinfo id="flow_0_in.13" depart="24901.00" departLane="-690833056#0_0" departPos="5.10" departSpeed="13.83" departDelay="1.00" arrival="25577.00" arrivalLane="-690833056#0_0" arrivalPos="10.76" arrivalSpeed="7.06" duration="676.00" routeLength="3544.68" waitingTime="3.00" waitingCount="2" stopTime="45.00" timeLoss="130.14" rerouteNo="1" devices="tripinfo_flow_0_in.13 routing_flow_0_in.13 fcd_flow_0_in.13" vType="car" speedFactor="1.00" vaporized=""/>
    <tripinfo id="flow_10_in.19" depart="24904.00" departLane="-687674681_0" departPos="0.20" departSpeed="0.00" departDelay="0.70" arrival="25662.00" arrivalLane="-687674681_0" arrivalPos="0.20" arrivalSpeed="10.79" duration="758.00" routeLength="2852.51" waitingTime="72.00" waitingCount="6" stopTime="45.00" timeLoss="225.40" rerouteNo="1" devices="tripinfo_flow_10_in.19 routing_flow_10_in.19 fcd_flow_10_in.19" vType="car" speedFactor="0.90" vaporized=""/>
    <tripinfo id="flow_0_in.14" depart="25016.00" departLane="-690833056#0_0" departPos="5.10" departSpeed="15.04" departDelay="0.61" arrival="25662.00" arrivalLane="-690833056#0_0" arrivalPos="10.76" arrivalSpeed="8.90" duration="646.00" routeLength="3544.68" waitingTime="0.00" waitingCount="0" stopTime="45.00" timeLoss="141.22" rerouteNo="1" devices="tripinfo_flow_0_in.14 routing_flow_0_in.14 fcd_flow_0_in.14" vType="car" speedFactor="1.08" vaporized=""/>
    <tripinfo id="flow_10_in.20" depart="24983.00" departLane="-687674681_0" departPos="0.20" departSpeed="0.00" departDelay="0.58" arrival="25666.00" arrivalLane="-687674681_0" arrivalPos="0.20" arrivalSpeed="10.44" duration="683.00" routeLength="2925.56" waitingTime="60.00" waitingCount="6" stopTime="45.00" timeLoss="203.83" rerouteNo="2" devices="tripinfo_flow_10_in.20 routing_flow_10_in.20 fcd_flow_10_in.20" vType="car" speedFactor="1.02" vaporized=""/>
    <tripinfo id="flow_15_in.12" depart="24985.00" departLane="27669864_0" departPos="0.20" departSpeed="4.12" departDelay="2.58" arrival="25671.00" arrivalLane="27669864_0" arrivalPos="0.20" arrivalSpeed="3.39" duration="686.00" routeLength="3692.58" waitingTime="3.00" waitingCount="3" stopTime="45.00" timeLoss="138.32" rerouteNo="1" devices="tripinfo_flow_15_in.12 routing_flow_15_in.12 fcd_flow_15_in.12" vType="car" speedFactor="0.97" vaporized=""/>
    <tripinfo id="flow_5_in.12" depart="25062.00" departLane="-687674693#1_0" departPos="0.20" departSpeed="5.45" departDelay="0.46" arrival="25683.00" arrivalLane="-687674693#1_0" arrivalPos="0.20" arrivalSpeed="3.20" duration="621.00" routeLength="3023.04" waitingTime="47.00" waitingCount="4" stopTime="45.00" timeLoss="173.78" rerouteNo="1" devices="tripinfo_flow_5_in.12 routing_flow_5_in.12 fcd_flow_5_in.12" vType="car" speedFactor="1.12" vaporized=""/>