<?xml version="1.0" encoding="UTF-8"?>

<!-- generated on 2026-04-04T16:02:06.413571+02:00 by Eclipse SUMO sumo 1.26.0
<sumoConfiguration xmlns:xsi="http://www.w3.org/2001/XMLSchema-instance" xsi:noNamespaceSchemaLocation="http://sumo.dlr.de/xsd/sumoConfiguration.xsd">

    <input>
        <net-file value="C:\Users\neill\Github\tokai-sim\sim\sumo\bergvliet.net.xml"/>
        <route-files value="C:\Users\neill\Github\tokai-sim\sim\sumo\demand-H.rou.xml"/>
        <additional-files value="C:\Users\neill\Github\tokai-sim\sim\sumo\speed-humps.add.xml"/>
    </input>

    <output>
        <fcd-output value="C:\Users\neill\Github\tokai-sim\sim\sumo\fcd-H.xml"/>
        <tripinfo-output value="C:\Users\neill\Github\tokai-sim\sim\sumo\tripinfo-H.xml"/>
    </output>

    <time>
        <begin value="23400"/>
        <end value="32400"/>
        <step-length value="1"/>
    </time>

    <processing>
        <ignore-route-errors value="true"/>
    </processing>

    <routing>
        <routing-algorithm value="astar"/>
        <device.rerouting.probability value="1.0"/>
        <device.rerouting.period value="60"/>
        <device.rerouting.pre-period value="0"/>
    </routing>

    <report>
        <no-warnings value="true"/>
        <no-step-log value="true"/>
    </report>

    <fcd_device>
        <device.fcd.period value="30"/>
    </fcd_device>

</sumoConfiguration>
-->

<tripinfos xmlns:xsi="http://www.w3.org/2001/XMLSchema-instance" xsi:noNamespaceSchemaLocation="http://sumo.dlr.de/xsd/tripinfo_file.xsd">
    <tripinfo id="flow_5_in.0" depart="23400.00" departLane="-687674693#1_0" departPos="0.20" departSpeed="5.45" departDelay="0.00" arrival="24053.00" arrivalLane="-687674693#1_0" arrivalPos="0.20" arrivalSpeed="3.08" duration="653.00" routeLength="3023.04" waitingTime="2.00" waitingCount="2" stopTime="45.00" timeLoss="133.78" rerouteNo="1" devices="tripinfo_flow_5_in.0 routing_flow_5_in.0 fcd_flow_5_in.0" vType="car" speedFactor="0.94" vaporized=""/>
    <tripinfo id="flow_10_in.0" depart="23400.00" departLane="-687674681_0" departPos="0.20" departSpeed="14.03" departDelay="0.00" arrival="24053.00" arrivalLane="-687674681_0" arrivalPos="0.20" arrivalSpeed="10.89" duration="653.00" routeLength="2925.56" waitingTime="5.00" waitingCount="5" stopTime="45.00" timeLoss="166.90" rerouteNo="1" devices="tripinfo_flow_10_in.0 routing_flow_10_in.0 fcd_flow_10_in.0" vType="car" speedFactor="1.01" vaporized=""/>
    <tripinfo id="flow_0_in.0" depart="23400.00" departLane="-690833056#0_0" departPos="5.10" departSpeed="14.72" departDelay="0.00" arrival="24083.00" arrivalLane="-690833056#0_0" arrivalPos="10.76" arrivalSpeed="8.28" duration="683.00" routeLength="3544.68" waitingTime="10.00" waitingCount="1" stopTime="45.00" timeLoss="167.66" rerouteNo="1" devices="tripinfo_flow_0_in.0 routing_flow_0_in.0 fcd_flow_0_in.0" vType="car" speedFactor="1.06" vaporized=""/>
    <tripinfo id="flow_15_in.0" depart="23400.00" departLane="27669864_0" departPos="0.20" departSpeed="4.12" departDelay="0.00" arrival="24087.00" arrivalLane="27669864_0" arrivalPos="0.20" arrivalSpeed="2.90" duration="687.00" routeLength="3692.58" waitingTime="2.00" waitingCount="2" stopTime="45.00" timeLoss="186.14" rerouteNo="1" devices="tripinfo_flow_15_in.0 routing_flow_15_in.0 fcd_flow_15_in.0" vType="car" speedFactor="1.08" vaporized=""/>
    <tripinfo id="flow_10_in.1" depart="23476.00" departLane="-687674681_0" departPos="0.20" departSpeed="0.00" departDelay="0.02" arrival="24130.00" arrivalLane="-687674681_0" arrivalPos="0.20" arrivalSpeed="9.98" duration="654.00" routeLength="2852.51" waitingTime="38.00" waitingCount="6" stopTime="45.00" timeLoss="184.17" rerouteNo="1" devices="tripinfo_flow_10_in.1 routing_flow_10_in.1 fcd_flow_10_in.1" vType="car" speedFactor="1.03" vaporized=""/>
    <tripinfo id="flow_5_in.1" depart="23543.00" departLane="-687674693#1_0" departPos="0.20" departSpeed="5.45" departDelay="0.14" arrival="24142.00" arrivalLane="-687674693#1_0" arrivalPos="0.20" arrivalSpeed="3.44" duration="599.00" routeLength="3023.04" waitingTime="2.00" waitingCount="2" stopTime="45.00" timeLoss="128.79" rerouteNo="1" devices="tripinfo_flow_5_in.1 routing_flow_5_in.1 fcd_flow_5_in.1" vType="car" speedFactor="1.05" vaporized=""/>
    <tripinfo id="flow_5_in.2" depart="23686.00" departLane="-687674693#1_0" departPos="0.20" departSpeed="5.45" departDelay="0.29" arrival="24301.00" arrivalLane="-687674693#1_0" arrivalPos="0.20" arrivalSpeed="2.76" duration="615.00" routeLength="3023.04" waitingTime="2.00" waitingCount="2" stopTime="45.00" timeLoss="158.65" rerouteNo="1" devices="tripinfo_flow_5_in.2 routing_flow_5_in.2 fcd_flow_5_in.2" vType="car" speedFactor="1.09" vaporized=""/>
    <tripinfo id="flow_10_in.2" depart="23552.00" departLane="-687674681_0" departPos="0.20" departSpeed="0.00" departDelay="0.04" arrival="24311.00" arrivalLane="-687674681_0" arrivalPos="0.20" arrivalSpeed="10.09" duration="759.00" routeLength="2852.51" waitingTime="38.00" waitingCount="7" stopTime="45.00" timeLoss="219.50" rerouteNo="1" devices="tripinfo_flow_10_in.2 routing_flow_10_in.2 fcd_flow_10_in.2" vType="car" speedFactor="0.89" vaporized=""/>
    <tripinfo id="flow_10_in.3" depart="23628.00" departLane="-687674681_0" departPos="0.20" departSpeed="0.00" departDelay="0.06" arrival="24330.00" arrivalLane="-687674681_0" arrivalPos="0.20" arrivalSpeed="10.44" duration="702.00" routeLength="2852.51" waitingTime="45.00" waitingCount="5" stopTime="45.00" timeLoss="190.17" rerouteNo="1" devices="tripinfo_flow_10_in.3 routing_flow_10_in.3 fcd_flow_10_in.3" vType="car" speedFactor="0.94" vaporized=""/>
    <tripinfo id="flow_0_in.1" depart="23543.00" departLane="-690833056#0_0" departPos="5.10" departSpeed="11.54" departDelay="0.14" arrival="24334.00" arrivalLane="-690833056#0_0" arrivalPos="10.76" arrivalSpeed="7.07" duration="791.00" routeLength="3544.68" waitingTime="0.00" waitingCount="0" stopTime="45.00" timeLoss="146.88" rerouteNo="1" devices="tripinfo_flow_0_in.1 routing_flow_0_in.1 fcd_flow_0_in.1" vType="car" speedFactor="0.83" vaporized=""/>
    <tripinfo id="flow_10_in.4" depart="23704.00" departLane="-687674681_0" departPos="0.20" departSpeed="14.26" departDelay="0.08" arrival="24334.00" arrivalLane="-687674681_0" arrivalPos="0.20" arrivalSpeed="12.54" duration="630.00" routeLength="2925.56" waitingTime="5.00" waitingCount="5" stopTime="45.00" timeLoss="152.79" rerouteNo="1" devices="tripinfo_flow_10_in.4 routing_flow_10_in.4 fcd_flow_10_in.4" vType="car" speedFactor="1.03" vaporized=""/>
    <tripinfo id="flow_10_in.5" depart="23780.00" departLane="-687674681_0" departPos="0.20" departSpeed="14.54" departDelay="0.10" arrival="24409.00" arrivalLane="-687674681_0" arrivalPos="0.20" arrivalSpeed="10.40" duration="629.00" routeLength="2925.56" waitingTime="4.00" waitingCount="4" stopTime="45.00" timeLoss="160.48" rerouteNo="1" devices="tripinfo_flow_10_in.5 routing_flow_10_in.5 fcd_flow_10_in.5" vType="car" speedFactor="1.05" vaporized=""/>
    <tripinfo id="flow_0_in.2" depart="23686.00" departLane="-690833056#0_0" departPos="5.10" departSpeed="11.90" departDelay="0.29" arrival="24450.00" arrivalLane="-690833056#0_0" arrivalPos="10.76" arrivalSpeed="8.06" duration="764.00" routeLength="3544.68" waitingTime="0.00" waitingCount="0" stopTime="45.00" timeLoss="138.19" rerouteNo="1" devices="tripinfo_flow_0_in.2 routing_flow_0_in.2 fcd_flow_0_in.2" vType="car" speedFactor="0.86" vaporized=""/>
    <tripinfo id="flow_5_in.3" depart="23829.00" departLane="-687674693#1_0" departPos="0.20" departSpeed="5.45" departDelay="0.43" arrival="24450.00" arrivalLane="-687674693#1_0" arrivalPos="0.20" arrivalSpeed="3.15" duration="621.00" routeLength="3023.04" waitingTime="2.00" waitingCount="2" stopTime="45.00" timeLoss="127.44" rerouteNo="1" devices="tripinfo_flow_5_in.3 routing_flow_5_in.3 fcd_flow_5_in.3" vType="car" speedFactor="0.99" vaporized=""/>
    <tripinfo id="flow_0_in.3" depart="23829.00" departLane="-690833056#0_0" departPos="5.10" departSpeed="15.60" departDelay="0.43" arrival="24480.00" arrivalLane="-690833056#0_0" arrivalPos="10.76" arrivalSpeed="10.01" duration="651.00" routeLength="3590.55" waitingTime="34.00" waitingCount="2" stopTime="45.00" timeLoss="157.66" rerouteNo="1" devices="tripinfo_flow_0_in.3 routing_flow_0_in.3 fcd_flow_0_in.3" vType="car" speedFactor="1.12" vaporized=""/>
    <tripinfo id="flow_10_in.6" depart="23856.00" departLane="-687674681_0" departPos="0.20" departSpeed="12.87" departDelay="0.11" arrival="24581.00" arrivalLane="-687674681_0" arrivalPos="0.20" arrivalSpeed="10.52" duration="725.00" routeLength="2852.51" waitingTime="49.00" waitingCount="7" stopTime="45.00" timeLoss="207.03" rerouteNo="1" devices="tripinfo_flow_10_in.6 routing_flow_10_in.6 fcd_flow_10_in.6" vType="car" speedFactor="0.93" vaporized=""/>
    <tripinfo id="flow_5_in.4" depart="23972.00" departLane="-687674693#1_0" departPos="0.20" departSpeed="5.45" departDelay="0.57" arrival="24644.00" arrivalLane="-687674693#1_0" arrivalPos="0.20" arrivalSpeed="2.53" duration="672.00" routeLength="3023.04" waitingTime="2.00" waitingCount="2" stopTime="45.00" timeLoss="152.48" rerouteNo="1" devices="tripinfo_flow_5_in.4 routing_flow_5_in.4 fcd_flow_5_in.4" vType="car" speedFactor="0.94" vaporized=""/>
    <tripinfo id="flow_10_in.7" depart="23932.00" departLane="-687674681_0" departPos="0.20" departSpeed="0.00" departDelay="0.13" arrival="24671.00" arrivalLane="-687674681_0" arrivalPos="0.20" arrivalSpeed="10.38" duration="739.00" routeLength="2852.51" waitingTime="45.00" waitingCount="6" stopTime="45.00" timeLoss="195.51" rerouteNo="1" devices="tripinfo_flow_10_in.7 routing_flow_10_in.7 fcd_flow_10_in.7" vType="car" speedFactor="0.88" vaporized=""/>
    <tripinfo id="flow_0_in.4" depart="23972.00" departLane="-690833056#0_0" departPos="5.10" departSpeed="13.08" departDelay="0.57" arrival="24675.00" arrivalLane="-690833056#0_0" arrivalPos="10.76" arrivalSpeed="9.93" duration="703.00" routeLength="3544.68" waitingTime="0.00" waitingCount="0" stopTime="45.00" timeLoss="129.76" rerouteNo="1" devices="tripinfo_flow_0_in.4 routing_flow_0_in.4 fcd_flow_0_in.4" vType="car" speedFactor="0.94" vaporized=""/>
    <tripinfo id="flow_10_in.8" depart="24008.00" departLane="-687674681_0" departPos="0.20" departSpeed="0.00" departDelay="0.15" arrival="24675.00" arrivalLane="-687674681_0" arrivalPos="0.20" arrivalSpeed="10.18" duration="667.00" routeLength="2917.72" waitingTime="54.00" waitingCount="5" stopTime="45.00" timeLoss="239.06" rerouteNo="2" devices="tripinfo_flow_10_in.8 routing_flow_10_in.8 fcd_flow_10_in.8" vType="car" speedFactor="1.16" vaporized=""/>
    <tripinfo id="flow_5_in.5" depart="24115.00" departLane="-687674693#1_0" departPos="0.20" departSpeed="5.45" departDelay="0.72" arrival="24759.00" arrivalLane="-687674693#1_0" arrivalPos="0.20" arrivalSpeed="3.34" duration="644.00" routeLength="3023.04" waitingTime="3.00" waitingCount="3" stopTime="45.00" timeLoss="142.84" rerouteNo="1" devices="tripinfo_flow_5_in.5 routing_flow_5_in.5 fcd_flow_5_in.5" vType="car" speedFactor="0.97" vaporized=""/>
    <tripinfo id="flow_10_in.9" depart="24084.00" departLane="-687674681_0" departPos="0.20" departSpeed="0.00" departDelay="0.17" arrival="24760.00" arrivalLane="-687674681_0" arrivalPos="0.20" arrivalSpeed="9.84" duration="676.00" routeLength="2925.56" waitingTime="39.00" waitingCount="5" stopTime="45.00" timeLoss="195.42" rerouteNo="4" devices="tripinfo_flow_10_in.9 routing_flow_10_in.9 fcd_flow_10_in.9" vType="car" speedFactor="1.02" vaporized=""/>
    <tripinfo id="flow_0_in.5" depart="24115.00" departLane="-690833056#0_0" departPos="5.10" departSpeed="14.03" departDelay="0.72" arrival="24792.00" arrivalLane="-690833056#0_0" arrivalPos="10.76" arrivalSpeed="7.64" duration="677.00" routeLength="3590.55" waitingTime="1.00" waitingCount="1" stopTime="45.00" timeLoss="135.83" rerouteNo="1" devices="tripinfo_flow_0_in.5 routing_flow_0_in.5 fcd_flow_0_in.5" vType="car" speedFactor="1.01" vaporized=""/>
    <tripinfo id="flow_5_in.6" depart="24258.00" departLane="-687674693#1_0" departPos="0.20" departSpeed="5.45" departDelay="0.86" arrival="24924.00" arrivalLane="-687674693#1_0" arrivalPos="0.20" arrivalSpeed="2.69" duration="666.00" routeLength="3023.04" waitingTime="2.00" waitingCount="2" stopTime="45.00" timeLoss="137.48" rerouteNo="1" devices="tripinfo_flow_5_in.6 routing_flow_5_in.6 fcd_flow_5_in.6" vType="car" speedFactor="0.92" vaporized=""/>
    <tripinfo id="flow_10_in.10" depart="24160.00" departLane="-687674681_0" departPos="0.20" departSpeed="0.00" departDelay="0.19" arrival="24941.00" arrivalLane="-687674681_0" arrivalPos="0.20" arrivalSpeed="9.52" duration="781.00" routeLength="2925.56" waitingTime="87.00" waitingCount="6" stopTime="45.00" timeLoss="236.79" rerouteNo="1" devices="tripinfo_flow_10_in.10 routing_flow_10_in.10 fcd_flow_10_in.10" vType="car" speedFactor="0.89" vaporized=""/>
    <tripinfo id="flow_5_in.7" depart="24400.00" departLane="-687674693#1_0" departPos="0.20" departSpeed="5.45" departDelay="0.00" arrival="24990.00" arrivalLane="-687674693#1_0" arrivalPos="0.20" arrivalSpeed="3.23" duration="590.00" routeLength="3023.04" waitingTime="2.00" waitingCount="2" stopTime="45.00" timeLoss="163.42" rerouteNo="1" devices="tripinfo_flow_5_in.7 routing_flow_5_in.7 fcd_flow_5_in.7" vType="car" speedFactor="1.18" vaporized=""/>
    <tripinfo id="flow_0_in.6" depart="24258.00" departLane="-690833056#0_0" departPos="5.10" departSpeed="12.12" departDelay="0.86" arrival="25016.00" arrivalLane="-690833056#0_0" arrivalPos="10.76" arrivalSpeed="8.25" duration="758.00" routeLength="3544.68" waitingTime="0.00" waitingCount="0" stopTime="45.00" timeLoss="143.10" rerouteNo="1" devices="tripinfo_flow_0_in.6 routing_flow_0_in.6 fcd_flow_0_in.6" vType="car" speedFactor="0.87" vaporized=""/>
    <tripinfo id="flow_10_in.11" depart="24236.00" departLane="-687674681_0" departPos="0.20" departSpeed="11.47" departDelay="0.21" arrival="25024.00" arrivalLane="-687674681_0" arrivalPos="0.20" arrivalSpeed="7.34" duration="788.00" routeLength="2852.51" waitingTime="50.00" waitingCount="6" stopTime="45.00" timeLoss="213.03" rerouteNo="1" devices="tripinfo_flow_10_in.11 routing_flow_10_in.11 fcd_flow_10_in.11" vType="car" speedFactor="0.83" vaporized=""/>
    <tripinfo id="flow_10_in.12" depart="24312.00" departLane="-687674681_0" departPos="0.20" departSpeed="13.18" departDelay="0.23" arrival="25031.00" arrivalLane="-687674681_0" arrivalPos="0.20" arrivalSpeed="11.27" duration="719.00" routeLength="2852.51" waitingTime="42.00" waitingCount="5" stopTime="45.00" timeLoss="213.49" rerouteNo="1" devices="tripinfo_flow_10_in.12 routing_flow_10_in.12 fcd_flow_10_in.12" vType="car" speedFactor="0.95" vaporized=""/>
    <tripinfo id="flow_10_in.13" depart="24388.00" departLane="-687674681_0" departPos="0.20" departSpeed="0.00" departDelay="0.25" arrival="25034.00" arrivalLane="-687674681_0" arrivalPos="0.20" arrivalSpeed="8.86" duration="646.00" routeLength="2925.56" waitingTime="42.00" waitingCount="7" stopTime="45.00" timeLoss="209.34" rerouteNo="2" devices="tripinfo_flow_10_in.13 routing_flow_10_in.13 fcd_flow_10_in.13" vType="car" speedFactor="1.13" vaporized=""/>
    <tripinfo id="flow_0_in.7" depart="24400.00" departLane="-690833056#0_0" departPos="5.10" departSpeed="12.94" departDelay="0.00" arrival="25111.00" arrivalLane="-690833056#0_0" arrivalPos="10.76" arrivalSpeed="7.73" duration="711.00" routeLength="3544.68" waitingTime="1.00" waitingCount="1" stopTime="45.00" timeLoss="132.22" rerouteNo="1" devices="tripinfo_flow_0_in.7 routing_flow_0_in.7 fcd_flow_0_in.7" vType="car" speedFactor="0.93" vaporized=""/>
    <tripinfo id="flow_10_in.14" depart="24464.00" departLane="-687674681_0" departPos="0.20" departSpeed="0.00" departDelay="0.27" arrival="25120.00" arrivalLane="-687674681_0" arrivalPos="0.20" arrivalSpeed="9.83" duration="656.00" routeLength="2917.72" waitingTime="59.00" waitingCount="5" stopTime="45.00" timeLoss="227.52" rerouteNo="3" devices="tripinfo_flow_10_in.14 routing_flow_10_in.14 fcd_flow_10_in.14" vType="car" speedFactor="1.15" vaporized=""/>
    <tripinfo id="flow_5_in.8" depart="24543.00" departLane="-687674693#1_0" departPos="0.20" departSpeed="5.45" departDelay="0.14" arrival="25174.00" arrivalLane="-687674693#1_0" arrivalPos="0.20" arrivalSpeed="3.22" duration="631.00" routeLength="3023.04" waitingTime="2.00" waitingCount="2" stopTime="45.00" timeLoss="140.02" rerouteNo="1" devices="tripinfo_flow_5_in.8 routing_flow_5_in.8 fcd_flow_5_in.8" vType="car" speedFactor="0.99" vaporized=""/>
    <tripinfo id="flow_0_in.8" depart="24543.00" departLane="-690833056#0_0" departPos="5.10" departSpeed="16.28" departDelay="0.14" arrival="25178.00" arrivalLane="-690833056#0_0" arrivalPos="10.76" arrivalSpeed="8.14" duration="635.00" routeLength="3590.55" waitingTime="1.00" waitingCount="1" stopTime="45.00" timeLoss="162.28" rerouteNo="1" devices="tripinfo_flow_0_in.8 routing_flow_0_in.8 fcd_flow_0_in.8" vType="car" speedFactor="1.17" vaporized=""/>
    <tripinfo id="flow_10_in.15" depart="24540.00" departLane="-687674681_0" departPos="0.20" departSpeed="0.00" departDelay="0.29" arrival="25213.00" arrivalLane="-687674681_0" arrivalPos="0.20" arrivalSpeed="11.42" duration="673.00" routeLength="2925.56" waitingTime="35.00" waitingCount="6" stopTime="45.00" timeLoss="185.58" rerouteNo="4" devices="tripinfo_flow_10_in.15 routing_flow_10_in.15 fcd_flow_10_in.15" vType="car" speedFactor="1.01" vaporized=""/>
    <tripinfo id="flow_15_in.1" depart="24593.00" departLane="27669864_0" departPos="0.20" departSpeed="4.12" departDelay="0.95" arrival="25252.00" arrivalLane="27669864_0" arrivalPos="0.20" arrivalSpeed="3.38" duration="659.00" routeLength="3692.58" waitingTime="2.00" waitingCount="2" stopTime="45.00" timeLoss="133.59" rerouteNo="1" devices="tripinfo_flow_15_in.1 routing_flow_15_in.1 fcd_flow_15_in.1" vType="car" speedFactor="1.02" vaporized=""/>
    <tripinfo id="flow_5_in.9" depart="24686.00" departLane="-687674693#1_0" departPos="0.20" departSpeed="5.45" departDelay="0.29" arrival="25300.00" arrivalLane="-687674693#1_0" arrivalPos="0.20" arrivalSpeed="3.75" duration="614.00" routeLength="3023.04" waitingTime="2.00" waitingCount="2" stopTime="45.00" timeLoss="163.31" rerouteNo="1" devices="tripinfo_flow_5_in.9 routing_flow_5_in.9 fcd_flow_5_in.9" vType="car" speedFactor="1.10" vaporized=""/>
    <tripinfo id="flow_10_in.16" depart="24616.00" departLane="-687674681_0" departPos="0.20" departSpeed="0.00" departDelay="0.30" arrival="25302.00" arrivalLane="-687674681_0" arrivalPos="0.20" arrivalSpeed="10.66" duration="686.00" routeLength="2852.51" waitingTime="47.00" waitingCount="5" stopTime="45.00" timeLoss="192.21" rerouteNo="3" devices="tripinfo_flow_10_in.16 routing_flow_10_in.16 fcd_flow_10_in.16" vType="car" speedFactor="0.97" vaporized=""/>
    <tripinfo id="flow_0_in.9" depart="24686.00" departLane="-690833056#0_0" departPos="5.10" departSpeed="16.39" departDelay="0.29" arrival="25313.00" arrivalLane="-690833056#0_0" arrivalPos="10.76" arrivalSpeed="7.75" duration="627.00" routeLength="3544.68" waitingTime="0.00" waitingCount="0" stopTime="45.00" timeLoss="159.41" rerouteNo="1" devices="tripinfo_flow_0_in.9 routing_flow_0_in.9 fcd_flow_0_in.9" vType="car" speedFactor="1.18" vaporized=""/>
    <tripinfo id="flow_10_in.17" depart="24692.00" departLane="-687674681_0" departPos="0.20" departSpeed="12.51" departDelay="0.32" arrival="25392.00" arrivalLane="-687674681_0" arrivalPos="0.20" arrivalSpeed="11.03" duration="700.00" routeLength="2852.51" waitingTime="18.00" waitingCount="5" stopTime="45.00" timeLoss="169.44" rerouteNo="1" devices="tripinfo_flow_10_in.17 routing_flow_10_in.17 fcd_flow_10_in.17" vType="car" speedFactor="0.90" vaporized=""/>
    <tripinfo id="flow_10_in.18" depart="24768.00" departLane="-687674681_0" departPos="0.20" departSpeed="14.31" departDelay="0.34" arrival="25394.00" arrivalLane="-687674681_0" arrivalPos="0.20" arrivalSpeed="9.68" duration="626.00" routeLength="2925.56" waitingTime="11.00" waitingCount="5" stopTime="45.00" timeLoss="150.29" rerouteNo="3" devices="tripinfo_flow_10_in.18 routing_flow_10_in.18 fcd_flow_10_in.18" vType="car" speedFactor="1.03" vaporized=""/>
    <tripinfo id="flow_5_in.10" depart="24829.00" departLane="-687674693#1_0" departPos="0.20" departSpeed="5.45" departDelay="0.43" arrival="25410.00" arrivalLane="-687674693#1_0" arrivalPos="0.20" arrivalSpeed="3.23" duration="581.00" routeLength="3023.04" waitingTime="2.00" waitingCount="2" stopTime="45.00" timeLoss="126.23" rerouteNo="1" devices="tripinfo_flow_5_in.10 routing_flow_5_in.10 fcd_flow_5_in.10" vType="car" speedFactor="1.09" vaporized=""/>
    <tripinfo id="flow_10_in.19" depart="24844.00" departLane="-687674681_0" departPos="0.20" departSpeed="14.42" departDelay="0.36" arrival="25481.00" arrivalLane="-687674681_0" arrivalPos="0.20" arrivalSpeed="11.16" duration="637.00" routeLength="2917.72" waitingTime="34.00" waitingCount="4" stopTime="45.00" timeLoss="165.76" rerouteNo="3" devices="tripinfo_flow_10_in.19 routing_flow_10_in.19 fcd_flow_10_in.19" vType="car" speedFactor="1.04" vaporized=""/>
    <tripinfo id="flow_0_in.10" depart="24829.00" departLane="-690833056#0_0" departPos="5.10" departSpeed="13.29" departDelay="0.43" arrival="25522.00" arrivalLane="-690833056#0_0" arrivalPos="10.76" arrivalSpeed="9.62" duration="693.00" routeLength="3544.68" waitingTime="1.00" waitingCount="1" stopTime="45.00" timeLoss="128.24" rerouteNo="1" devices="tripinfo_flow_0_in.10 routing_flow_0_in.10 fcd_flow_0_in.10" vType="car" speedFactor="0.96" vaporized=""/>
    <tripinfo id="flow_10_in.20" depart="24920.00" departLane="-687674681_0" departPos="0.20" departSpeed="0.00" departDelay="0.38" arrival="25571.00" arrivalLane="-687674681_0" arrivalPos="0.20" arrivalSpeed="11.78" duration="651.00" routeLength="2917.72" waitingTime="46.00" waitingCount="5" stopTime="45.00" timeLoss="180.99" rerouteNo="3" devices="tripinfo_flow_10_in.20 routing_flow_10_in.20 fcd_flow_10_in.20" vType="car" speedFactor="1.04" vaporized=""/>
    <tripinfo id="flow_5_in.11" depart="24972.00" departLane="-687674693#1_0" departPos="0.20" departSpeed="5.45" departDelay="0.57" arrival="25605.00" arrivalLane="-687674693#1_0" arrivalPos="0.20" arrivalSpeed="2.41" duration="633.00" routeLength="3023.04" waitingTime="3.00" waitingCount="3" stopTime="45.00" timeLoss="142.72" rerouteNo="1" devices="tripinfo_flow_5_in.11 routing_flow_5_in.11 fcd_flow_5_in.11" vType="car" speedFactor="1.00" vaporized=""/>
    <tripinfo id="flow_0_in.11" depart="24972.00" departLane="-690833056#0_0" departPos="5.10" departSpeed="15.11" departDelay="0.57" arrival="25613.00" arrivalLane="-690833056#0_0" arrivalPos="10.76" arrivalSpeed="8.56" duration="641.00" routeLength="3544.68" waitingTime="0.00" waitingCount="0" stopTime="45.00" timeLoss="140.24" rerouteNo="1" devices="tripinfo_flow_0_in.11 routing_flow_0_in.11 fcd_flow_0_in.11" vType="car" speedFactor="1.09" vaporized=""/>
    <tripinfo id="flow_10_in.21" depart="24996.00" departLane="-687674681_0" departPos="0.20" departSpeed="0.00" departDelay="0.40" arrival="25751.00" arrivalLane="-687674681_0" arrivalPos="0.20" arrivalSpeed="9.79" duration="755.00" routeLength="2852.51" waitingTime="74.00" waitingCount="6" stopTime="45.00" timeLoss="224.96" rerouteNo="1" devices="tripinfo_flow_10_in.21 routing_flow_10_in.21 fcd_flow_10_in.21" vType="car" speedFactor="0.90" vaporized=""/>
    <tripinfo id="flow_5_in.12" depart="25115.00" departLane="-687674693#1_0" departPos="0.20" departSpeed="5.45" departDelay="0.72" arrival="25823.00" arrivalLane="-687674693#1_0" arrivalPos="0.20" arrivalSpeed="2.23" duration="708.00" routeLength="3023.04" waitingTime="2.00" waitingCount="2" stopTime="45.00" timeLoss="144.13" rerouteNo="1" devices="tripinfo_flow_5_in.12 routing_flow_5_in.12 fcd_flow_5_in.12" vType="car" speedFactor="0.85" vaporized=""/>
    <tripinfo id="flow_10_in.22" depart="25072.00" departLane="-687674681_0" departPos="0.20" departSpeed="0.00" departDelay="0.42" arrival="25841.00" arrivalLane="-687674681_0" arrivalPos="0.20" arrivalSpeed="8.86" duration="769.00" routeLength="2852.51" waitingTime="58.00" waitingCount="7" stopTime="45.00" timeLoss="224.37" rerouteNo="1" devices="tripinfo_flow_10_in.22 routing_flow_10_in.22 fcd_flow_10_in.22" vType="car" speedFactor="0.88" vaporized=""/>
    <tripinfo id="flow_10_in.23" depart="25148.00" departLane="-687674681_0" departPos="0.20" departSpeed="16.24" departDelay="0.44" arrival="25845.00" arrivalLane="-687674681_0" arrivalPos="0.20" arrivalSpeed="10.57" duration="697.00" routeLength="2925.56" waitingTime="18.00" waitingCount="5" stopTime="45.00" timeLoss="272.57" rerouteNo="3" devices="tripinfo_flow_10_in.23 routing_flow_10_in.23 fcd_flow_10_in.23" vType="car" speedFactor="1.17" vaporized=""/>
    <tripinfo id="flow_10_in.24" depart="25224.00" departLane="-687674681_0" departPos="0.20" departSpeed="14.12" departDelay="0.46" arrival="25856.00" arrivalLane="-687674681_0" arrivalPos="0.20" arrivalSpeed="10.01" duration="632.00" routeLength="2925.56" waitingTime="4.00" waitingCount="4" stopTime="45.00" timeLoss="149.73" rerouteNo="1" devices="tripinfo_flow_10_in.24 routing_flow_10_in.24 fcd_flow_10_in.24" vType="car" speedFactor="1.02" vaporized=""/>
    <tripinfo id="flow_5_in.13" depart="25258.00" departLane="-687674693#1_0" departPos="0.20" departSpeed="5.45" departDelay="0.86" arrival="25872.00" arrivalLane="-687674693#1_0" arrivalPos="0.20" arrivalSpeed="2.65" duration="614.00" routeLength="3023.04" waitingTime="2.00" waitingCount="2" stopTime="45.00" timeLoss="125.56" rerouteNo="1" devices="tripinfo_flow_5_in.13 routing_flow_5_in.13 fcd_flow_5_in.13" vType="car" speedFactor="1.00" vaporized=""/>
    <tripinfo id="flow_0_in.12" depart="25115.00" departLane="-690833056#0_0" departPos="5.10" departSpeed="11.81" departDelay="0.72" arrival="25884.00" arrivalLane="-690833056#0_0" arrivalPos="10.76" arrivalSpeed="8.68" duration="769.00" routeLength="3544.68" waitingTime="1.00" waitingCount="1" stopTime="45.00" timeLoss="139.00" rerouteNo="1" devices="tripinfo_flow_0_in.12 routing_flow_0_in.12 fcd_flow_0_in.12" vType="car" speedFactor="0.85" vaporized=""/>
    <tripinfo id="flow_0_in.13" depart="25258.00" departLane="-690833056#0_0" departPos="5.10" departSpeed="15.22" departDelay="0.86" arrival="25889.00" arrivalLane="-690833056#0_0" arrivalPos="10.76" arrivalSpeed="9.15" duration="631.00" routeLength="3590.55" waitingTime="1.00" waitingCount="1" stopTime="45.00" timeLoss="127.80" rerouteNo="1" devices="tripinfo_flow_0_in.13 routing_flow_0_in.13 fcd_flow_0_in.13" vType="car" speedFactor="1.10" vaporized=""/>
    <tripinfo id="flow_10_in.25" depart="25300.00" departLane="-687674681_0" departPos="0.20" departSpeed="13.83" departDelay="0.48" arrival="25931.00" arrivalLane="-687674681_0" arrivalPos="0.20" arrivalSpeed="8.72" duration="631.00" routeLength="2917.72" waitingTime="7.00" waitingCount="4" stopTime="45.00" timeLoss="140.11" rerouteNo="3" devices="tripinfo_flow_10_in.25 routing_flow_10_in.25 fcd_flow_10_in.25" vType="car" speedFactor="1.00" vaporized=""/>
    <tripinfo id="flow_5_in.14" depart="25400.00" departLane="-687674693#1_0" departPos="0.20" departSpeed="5.45" departDelay="0.00" arrival="26008.00" arrivalLane="-687674693#1_0" arrivalPos="0.20" arrivalSpeed="2.52" duration="608.00" routeLength="3023.04" waitingTime="2.00" waitingCount="2" stopTime="45.00" timeLoss="126.53" rerouteNo="1" devices="tripinfo_flow_5_in.14 routing_flow_5_in.14 fcd_flow_5_in.14" vType="car" speedFactor="1.02" vaporized=""/>
    <tripinfo id="flow_0_in.14" depart="25400.00" departLane="-690833056#0_0" departPos="5.10" departSpeed="15.87" departDelay="0.00" arrival="26074.00" arrivalLane="-690833056#0_0" arrivalPos="10.76" arrivalSpeed="9.34" duration="674.00" routeLength="3544.68" waitingTime="0.00" waitingCount="0" stopTime="45.00" timeLoss="192.18" rerouteNo="1" devices="tripinfo_flow_0_in.14 routing_flow_0_in.14 fcd_flow_0_in.14" vType="car" speedFactor="1.14" vaporized=""/>
    <tripinfo id="flow_10_in.26" depart="25376.00" departLane="-687674681_0" departPos="0.20" departSpeed="0.00" departDelay="0.49" arrival="26112.00" arrivalLane="-687674681_0" arrivalPos="0.20" arrivalSpeed="8.98" duration="736.00" routeLength="2852.51" waitingTime="47.00" waitingCount="6" stopTime="45.00" timeLoss="204.86" rerouteNo="1" devices="tripinfo_flow_10_in.26 routing_flow_10_in.26 fcd_flow_10_in.26" vType="car" speedFactor="0.90" vaporized=""/>
    <tripinfo id="flow_10_in.27" depart="25452.00" departLane="-687674681_0" departPos="0.20" departSpeed="0.00" departDelay="0.51" arrival="26116.00" arrivalLane="-687674681_0" arrivalPos="0.20" arrivalSpeed="11.14" duration="664.00" routeLength="2925.56" waitingTime="21.00" waitingCount="5" stopTime="45.00" timeLoss="162.08" rerouteNo="1" devices="tripinfo_flow_10_in.27 routing_flow_10_in.27 fcd_flow_10_in.27" vType="car" speedFactor="0.97" vaporized=""/>
    <tripinfo id="flow_5_in.15" depart="25543.00" departLane="-687674693#1_0" departPos="0.20" departSpeed="5.45" departDelay="0.15" arrival="26162.00" arrivalLane="-687674693#1_0" arrivalPos="0.20" arrivalSpeed="3.67" duration="619.00" routeLength="3023.04" waitingTime="2.00" waitingCount="2" stopTime="45.00" timeLoss="134.80" rerouteNo="1" devices="tripinfo_flow_5_in.15 routing_flow_5_in.15 fcd_flow_5_in.15" vType="car" speedFactor="1.02" vaporized=""/>
    <tripinfo id="flow_0_in.15" depart="25543.00" departLane="-690833056#0_0" departPos="5.10" departSpeed="15.55" departDelay="0.15" arrival="26174.00" arrivalLane="-690833056#0_0" arrivalPos="10.76" arrivalSpeed="8.72" duration="631.00" routeLength="3544.68" waitingTime="0.00" waitingCount="0" stopTime="45.00" timeLoss="141.16" rerouteNo="1" devices="tripinfo_flow_0_in.15 routing_flow_0_in.15 fcd_flow_0_in.15" vType="car" speedFactor="1.12" vaporized=""/>