<?xml version="1.0" encoding="UTF-8"?>

<!-- generated on 2026-04-03T22:08:04.826738+02:00 by Eclipse SUMO sumo 1.26.0
<sumoConfiguration xmlns:xsi="http://www.w3.org/2001/XMLSchema-instance" xsi:noNamespaceSchemaLocation="http://sumo.dlr.de/xsd/sumoConfiguration.xsd">

    <input>
        <net-file value="C:\Users\neill\Github\tokai-sim\sim\sumo\bergvliet.net.xml"/>
        <route-files value="C:\Users\neill\Github\tokai-sim\sim\sumo\demand-L.rou.xml"/>
        <additional-files value="C:\Users\neill\Github\tokai-sim\sim\sumo\speed-humps.add.xml"/>
    </input>

    <output>
        <fcd-output value="C:\Users\neill\Github\tokai-sim\sim\sumo\fcd-L.xml"/>
        <tripinfo-output value="C:\Users\neill\Github\tokai-sim\sim\sumo\tripinfo-L.xml"/>
    </output>

    <time>
        <begin value="23400"/>
        <end value="32400"/>
        <step-length value="1"/>
    </time>

    <processing>
        <ignore-route-errors value="true"/>
    </processing>

    <routing>
        <routing-algorithm value="astar"/>
        <device.rerouting.probability value="1.0"/>
        <device.rerouting.period value="60"/>
        <device.rerouting.pre-period value="0"/>
    </routing>

    <report>
        <no-warnings value="true"/>
        <no-step-log value="true"/>
    </report>

    <fcd_device>
        <device.fcd.period value="30"/>
    </fcd_device>

</sumoConfiguration>
-->

<tripinfos xmlns:xsi="http://www.w3.org/2001/XMLSchema-instance" xsi:noNamespaceSchemaLocation="http://sumo.dlr.de/xsd/tripinfo_file.xsd">
    <tripinfo id="flow_5_in.0" depart="23400.00" departLane="-687674693#1_0" departPos="0.20" departSpeed="5.45" departDelay="0.00" arrival="24056.00" arrivalLane="-687674693#1_0" arrivalPos="0.20" arrivalSpeed="2.90" duration="656.00" routeLength="3023.04" waitingTime="2.00" waitingCount="2" stopTime="45.00" timeLoss="136.31" rerouteNo="1" devices="tripinfo_flow_5_in.0 routing_flow_5_in.0 fcd_flow_5_in.0" vType="car" speedFactor="0.94" vaporized=""/>
    <tripinfo id="flow_10_in.0" depart="23400.00" departLane="-687674681_0" departPos="0.20" departSpeed="14.03" departDelay="0.00" arrival="24062.00" arrivalLane="-687674681_0" arrivalPos="0.20" arrivalSpeed="9.88" duration="662.00" routeLength="2925.56" waitingTime="5.00" waitingCount="5" stopTime="45.00" timeLoss="176.35" rerouteNo="1" devices="tripinfo_flow_10_in.0 routing_flow_10_in.0 fcd_flow_10_in.0" vType="car" speedFactor="1.01" vaporized=""/>
    <tripinfo id="flow_0_in.0" depart="23400.00" departLane="-690833056#0_0" departPos="5.10" departSpeed="14.72" departDelay="0.00" arrival="24084.00" arrivalLane="-690833056#0_0" arrivalPos="10.76" arrivalSpeed="9.26" duration="684.00" routeLength="3544.68" waitingTime="10.00" waitingCount="1" stopTime="45.00" timeLoss="169.28" rerouteNo="1" devices="tripinfo_flow_0_in.0 routing_flow_0_in.0 fcd_flow_0_in.0" vType="car" speedFactor="1.06" vaporized=""/>
    <tripinfo id="flow_15_in.0" depart="23400.00" departLane="27669864_0" departPos="0.20" departSpeed="4.12" departDelay="0.00" arrival="24089.00" arrivalLane="27669864_0" arrivalPos="0.20" arrivalSpeed="3.03" duration="689.00" routeLength="3692.58" waitingTime="2.00" waitingCount="2" stopTime="45.00" timeLoss="189.53" rerouteNo="1" devices="tripinfo_flow_15_in.0 routing_flow_15_in.0 fcd_flow_15_in.0" vType="car" speedFactor="1.08" vaporized=""/>
    <tripinfo id="flow_10_in.1" depart="23501.00" departLane="-687674681_0" departPos="0.20" departSpeed="14.31" departDelay="0.16" arrival="24131.00" arrivalLane="-687674681_0" arrivalPos="0.20" arrivalSpeed="10.90" duration="630.00" routeLength="2852.51" waitingTime="17.00" waitingCount="6" stopTime="45.00" timeLoss="159.03" rerouteNo="1" devices="tripinfo_flow_10_in.1 routing_flow_10_in.1 fcd_flow_10_in.1" vType="car" speedFactor="1.03" vaporized=""/>
    <tripinfo id="flow_5_in.1" depart="23520.00" departLane="-687674693#1_0" departPos="0.20" departSpeed="5.45" departDelay="0.00" arrival="24246.00" arrivalLane="-687674693#1_0" arrivalPos="0.20" arrivalSpeed="2.46" duration="726.00" routeLength="3023.04" waitingTime="2.00" waitingCount="2" stopTime="45.00" timeLoss="147.75" rerouteNo="1" devices="tripinfo_flow_5_in.1 routing_flow_5_in.1 fcd_flow_5_in.1" vType="car" speedFactor="0.83" vaporized=""/>
    <tripinfo id="flow_15_in.1" depart="23594.00" departLane="27669864_0" departPos="0.20" departSpeed="4.12" departDelay="0.45" arrival="24281.00" arrivalLane="27669864_0" arrivalPos="0.20" arrivalSpeed="5.41" duration="687.00" routeLength="3692.58" waitingTime="2.00" waitingCount="2" stopTime="45.00" timeLoss="171.70" rerouteNo="1" devices="tripinfo_flow_15_in.1 routing_flow_15_in.1 fcd_flow_15_in.1" vType="car" speedFactor="1.05" vaporized=""/>
    <tripinfo id="flow_10_in.2" depart="23602.00" departLane="-687674681_0" departPos="0.20" departSpeed="12.31" departDelay="0.32" arrival="24311.00" arrivalLane="-687674681_0" arrivalPos="0.20" arrivalSpeed="10.28" duration="709.00" routeLength="2852.51" waitingTime="16.00" waitingCount="5" stopTime="45.00" timeLoss="170.69" rerouteNo="1" devices="tripinfo_flow_10_in.2 routing_flow_10_in.2 fcd_flow_10_in.2" vType="car" speedFactor="0.89" vaporized=""/>
    <tripinfo id="flow_10_in.3" depart="23703.00" departLane="-687674681_0" departPos="0.20" departSpeed="15.15" departDelay="0.48" arrival="24338.00" arrivalLane="-687674681_0" arrivalPos="0.20" arrivalSpeed="10.79" duration="635.00" routeLength="2925.56" waitingTime="5.00" waitingCount="5" stopTime="45.00" timeLoss="183.45" rerouteNo="1" devices="tripinfo_flow_10_in.3 routing_flow_10_in.3 fcd_flow_10_in.3" vType="car" speedFactor="1.09" vaporized=""/>
    <tripinfo id="flow_5_in.2" depart="23640.00" departLane="-687674693#1_0" departPos="0.20" departSpeed="5.45" departDelay="0.00" arrival="24353.00" arrivalLane="-687674693#1_0" arrivalPos="0.20" arrivalSpeed="1.91" duration="713.00" routeLength="3023.04" waitingTime="3.00" waitingCount="3" stopTime="45.00" timeLoss="151.55" rerouteNo="1" devices="tripinfo_flow_5_in.2 routing_flow_5_in.2 fcd_flow_5_in.2" vType="car" speedFactor="0.86" vaporized=""/>
    <tripinfo id="flow_0_in.1" depart="23630.00" departLane="-690833056#0_0" departPos="5.10" departSpeed="13.03" departDelay="0.70" arrival="24371.00" arrivalLane="-690833056#0_0" arrivalPos="10.76" arrivalSpeed="8.98" duration="741.00" routeLength="3544.68" waitingTime="1.00" waitingCount="1" stopTime="45.00" timeLoss="164.69" rerouteNo="1" devices="tripinfo_flow_0_in.1 routing_flow_0_in.1 fcd_flow_0_in.1" vType="car" speedFactor="0.94" vaporized=""/>
    <tripinfo id="flow_5_in.3" depart="23760.00" departLane="-687674693#1_0" departPos="0.20" departSpeed="5.45" departDelay="0.00" arrival="24371.00" arrivalLane="-687674693#1_0" arrivalPos="0.20" arrivalSpeed="2.73" duration="611.00" routeLength="3023.04" waitingTime="2.00" waitingCount="2" stopTime="45.00" timeLoss="131.95" rerouteNo="1" devices="tripinfo_flow_5_in.3 routing_flow_5_in.3 fcd_flow_5_in.3" vType="car" speedFactor="1.03" vaporized=""/>
    <tripinfo id="flow_10_in.4" depart="23804.00" departLane="-687674681_0" departPos="0.20" departSpeed="0.00" departDelay="0.64" arrival="24430.00" arrivalLane="-687674681_0" arrivalPos="0.20" arrivalSpeed="10.21" duration="626.00" routeLength="2925.56" waitingTime="49.00" waitingCount="5" stopTime="45.00" timeLoss="186.86" rerouteNo="1" devices="tripinfo_flow_10_in.4 routing_flow_10_in.4 fcd_flow_10_in.4" vType="car" speedFactor="1.12" vaporized=""/>
    <tripinfo id="flow_15_in.2" depart="23788.00" departLane="27669864_0" departPos="0.20" departSpeed="4.12" departDelay="0.90" arrival="24435.00" arrivalLane="27669864_0" arrivalPos="0.20" arrivalSpeed="3.54" duration="647.00" routeLength="3692.58" waitingTime="2.00" waitingCount="2" stopTime="45.00" timeLoss="134.23" rerouteNo="1" devices="tripinfo_flow_15_in.2 routing_flow_15_in.2 fcd_flow_15_in.2" vType="car" speedFactor="1.05" vaporized=""/>
    <tripinfo id="flow_5_in.4" depart="23880.00" departLane="-687674693#1_0" departPos="0.20" departSpeed="5.45" departDelay="0.00" arrival="24549.00" arrivalLane="-687674693#1_0" arrivalPos="0.20" arrivalSpeed="2.42" duration="669.00" routeLength="3023.04" waitingTime="2.00" waitingCount="2" stopTime="45.00" timeLoss="143.54" rerouteNo="1" devices="tripinfo_flow_5_in.4 routing_flow_5_in.4 fcd_flow_5_in.4" vType="car" speedFactor="0.93" vaporized=""/>
    <tripinfo id="flow_0_in.2" depart="23859.00" departLane="-690833056#0_0" departPos="5.10" departSpeed="13.77" departDelay="0.40" arrival="24566.00" arrivalLane="-690833056#0_0" arrivalPos="10.76" arrivalSpeed="7.45" duration="707.00" routeLength="3544.68" waitingTime="3.00" waitingCount="1" stopTime="45.00" timeLoss="159.97" rerouteNo="1" devices="tripinfo_flow_0_in.2 routing_flow_0_in.2 fcd_flow_0_in.2" vType="car" speedFactor="0.99" vaporized=""/>
    <tripinfo id="flow_10_in.5" depart="23905.00" departLane="-687674681_0" departPos="0.20" departSpeed="0.00" departDelay="0.80" arrival="24671.00" arrivalLane="-687674681_0" arrivalPos="0.20" arrivalSpeed="10.85" duration="766.00" routeLength="2852.51" waitingTime="68.00" waitingCount="6" stopTime="45.00" timeLoss="222.72" rerouteNo="1" devices="tripinfo_flow_10_in.5 routing_flow_10_in.5 fcd_flow_10_in.5" vType="car" speedFactor="0.88" vaporized=""/>
    <tripinfo id="flow_5_in.5" depart="24000.00" departLane="-687674693#1_0" departPos="0.20" departSpeed="5.45" departDelay="0.00" arrival="24675.00" arrivalLane="-687674693#1_0" arrivalPos="0.20" arrivalSpeed="5.34" duration="675.00" routeLength="3023.04" waitingTime="3.00" waitingCount="3" stopTime="45.00" timeLoss="155.34" rerouteNo="1" devices="tripinfo_flow_5_in.5 routing_flow_5_in.5 fcd_flow_5_in.5" vType="car" speedFactor="0.94" vaporized=""/>
    <tripinfo id="flow_10_in.6" depart="24006.00" departLane="-687674681_0" departPos="0.20" departSpeed="0.00" departDelay="0.96" arrival="24675.00" arrivalLane="-687674681_0" arrivalPos="0.20" arrivalSpeed="11.25" duration="669.00" routeLength="2925.56" waitingTime="32.00" waitingCount="7" stopTime="45.00" timeLoss="241.72" rerouteNo="1" devices="tripinfo_flow_10_in.6 routing_flow_10_in.6 fcd_flow_10_in.6" vType="car" speedFactor="1.16" vaporized=""/>
    <tripinfo id="flow_15_in.3" depart="23981.00" departLane="27669864_0" departPos="0.20" departSpeed="4.12" departDelay="0.36" arrival="24683.00" arrivalLane="27669864_0" arrivalPos="0.20" arrivalSpeed="2.24" duration="702.00" routeLength="3692.58" waitingTime="2.00" waitingCount="2" stopTime="45.00" timeLoss="138.86" rerouteNo="1" devices="tripinfo_flow_15_in.3 routing_flow_15_in.3 fcd_flow_15_in.3" vType="car" speedFactor="0.94" vaporized=""/>
    <tripinfo id="flow_0_in.3" depart="24088.00" departLane="-690833056#0_0" departPos="5.10" departSpeed="14.14" departDelay="0.10" arrival="24736.00" arrivalLane="-690833056#0_0" arrivalPos="10.76" arrivalSpeed="7.31" duration="648.00" routeLength="3544.68" waitingTime="0.00" waitingCount="0" stopTime="45.00" timeLoss="113.73" rerouteNo="1" devices="tripinfo_flow_0_in.3 routing_flow_0_in.3 fcd_flow_0_in.3" vType="car" speedFactor="1.02" vaporized=""/>
    <tripinfo id="flow_10_in.7" depart="24106.00" departLane="-687674681_0" departPos="0.20" departSpeed="0.00" departDelay="0.12" arrival="24761.00" arrivalLane="-687674681_0" arrivalPos="0.20" arrivalSpeed="9.77" duration="655.00" routeLength="2925.56" waitingTime="17.00" waitingCount="5" stopTime="45.00" timeLoss="171.16" rerouteNo="2" devices="tripinfo_flow_10_in.7 routing_flow_10_in.7 fcd_flow_10_in.7" vType="car" speedFactor="1.01" vaporized=""/>
    <tripinfo id="flow_5_in.6" depart="24120.00" departLane="-687674693#1_0" departPos="0.20" departSpeed="5.45" departDelay="0.00" arrival="24761.00" arrivalLane="-687674693#1_0" arrivalPos="0.20" arrivalSpeed="3.17" duration="641.00" routeLength="3023.04" waitingTime="3.00" waitingCount="3" stopTime="45.00" timeLoss="140.37" rerouteNo="1" devices="tripinfo_flow_5_in.6 routing_flow_5_in.6 fcd_flow_5_in.6" vType="car" speedFactor="0.97" vaporized=""/>
    <tripinfo id="flow_15_in.4" depart="24175.00" departLane="27669864_0" departPos="0.20" departSpeed="4.12" departDelay="0.81" arrival="24915.00" arrivalLane="27669864_0" arrivalPos="0.20" arrivalSpeed="2.01" duration="740.00" routeLength="3692.58" waitingTime="3.00" waitingCount="3" stopTime="45.00" timeLoss="147.77" rerouteNo="1" devices="tripinfo_flow_15_in.4 routing_flow_15_in.4 fcd_flow_15_in.4" vType="car" speedFactor="0.89" vaporized=""/>
    <tripinfo id="flow_10_in.8" depart="24207.00" departLane="-687674681_0" departPos="0.20" departSpeed="0.00" departDelay="0.28" arrival="24942.00" arrivalLane="-687674681_0" arrivalPos="0.20" arrivalSpeed="10.42" duration="735.00" routeLength="2852.51" waitingTime="7.00" waitingCount="6" stopTime="45.00" timeLoss="159.63" rerouteNo="1" devices="tripinfo_flow_10_in.8 routing_flow_10_in.8 fcd_flow_10_in.8" vType="car" speedFactor="0.83" vaporized=""/>
    <tripinfo id="flow_5_in.7" depart="24240.00" departLane="-687674693#1_0" departPos="0.20" departSpeed="5.45" departDelay="0.00" arrival="24958.00" arrivalLane="-687674693#1_0" arrivalPos="0.20" arrivalSpeed="2.80" duration="718.00" routeLength="3023.04" waitingTime="3.00" waitingCount="3" stopTime="45.00" timeLoss="165.64" rerouteNo="1" devices="tripinfo_flow_5_in.7 routing_flow_5_in.7 fcd_flow_5_in.7" vType="car" speedFactor="0.87" vaporized=""/>
    <tripinfo id="flow_5_in.8" depart="24360.00" departLane="-687674693#1_0" departPos="0.20" departSpeed="5.45" departDelay="0.00" arrival="24986.00" arrivalLane="-687674693#1_0" arrivalPos="0.20" arrivalSpeed="3.84" duration="626.00" routeLength="3023.04" waitingTime="2.00" waitingCount="2" stopTime="45.00" timeLoss="184.75" rerouteNo="1" devices="tripinfo_flow_5_in.8 routing_flow_5_in.8 fcd_flow_5_in.8" vType="car" speedFactor="1.13" vaporized=""/>
    <tripinfo id="flow_0_in.4" depart="24318.00" departLane="-690833056#0_0" departPos="5.10" departSpeed="13.18" departDelay="0.80" arrival="25014.00" arrivalLane="-690833056#0_0" arrivalPos="10.76" arrivalSpeed="8.82" duration="696.00" routeLength="3544.68" waitingTime="0.00" waitingCount="0" stopTime="45.00" timeLoss="127.19" rerouteNo="1" devices="tripinfo_flow_0_in.4 routing_flow_0_in.4 fcd_flow_0_in.4" vType="car" speedFactor="0.95" vaporized=""/>
    <tripinfo id="flow_10_in.9" depart="24308.00" departLane="-687674681_0" departPos="0.20" departSpeed="12.74" departDelay="0.44" arrival="25031.00" arrivalLane="-687674681_0" arrivalPos="0.20" arrivalSpeed="8.75" duration="723.00" routeLength="2852.51" waitingTime="49.00" waitingCount="5" stopTime="45.00" timeLoss="199.95" rerouteNo="1" devices="tripinfo_flow_10_in.9 routing_flow_10_in.9 fcd_flow_10_in.9" vType="car" speedFactor="0.92" vaporized=""/>
    <tripinfo id="flow_10_in.10" depart="24409.00" departLane="-687674681_0" departPos="0.20" departSpeed="16.37" departDelay="0.60" arrival="25038.00" arrivalLane="-687674681_0" arrivalPos="0.20" arrivalSpeed="10.16" duration="629.00" routeLength="2917.72" waitingTime="3.00" waitingCount="3" stopTime="45.00" timeLoss="209.58" rerouteNo="3" devices="tripinfo_flow_10_in.10 routing_flow_10_in.10 fcd_flow_10_in.10" vType="car" speedFactor="1.18" vaporized=""/>
    <tripinfo id="flow_5_in.9" depart="24480.00" departLane="-687674693#1_0" departPos="0.20" departSpeed="5.45" departDelay="0.00" arrival="25050.00" arrivalLane="-687674693#1_0" arrivalPos="0.20" arrivalSpeed="3.72" duration="570.00" routeLength="3023.04" waitingTime="2.00" waitingCount="2" stopTime="45.00" timeLoss="136.01" rerouteNo="1" devices="tripinfo_flow_5_in.9 routing_flow_5_in.9 fcd_flow_5_in.9" vType="car" speedFactor="1.15" vaporized=""/>
    <tripinfo id="flow_15_in.5" depart="24368.00" departLane="27669864_0" departPos="0.20" departSpeed="4.12" departDelay="0.26" arrival="25081.00" arrivalLane="27669864_0" arrivalPos="0.20" arrivalSpeed="3.24" duration="713.00" routeLength="3692.58" waitingTime="2.00" waitingCount="2" stopTime="45.00" timeLoss="145.46" rerouteNo="1" devices="tripinfo_flow_15_in.5 routing_flow_15_in.5 fcd_flow_15_in.5" vType="car" speedFactor="0.93" vaporized=""/>
    <tripinfo id="flow_10_in.11" depart="24510.00" departLane="-687674681_0" departPos="0.20" departSpeed="13.96" departDelay="0.76" arrival="25139.00" arrivalLane="-687674681_0" arrivalPos="0.20" arrivalSpeed="11.11" duration="629.00" routeLength="2925.56" waitingTime="4.00" waitingCount="4" stopTime="45.00" timeLoss="140.79" rerouteNo="1" devices="tripinfo_flow_10_in.11 routing_flow_10_in.11 fcd_flow_10_in.11" vType="car" speedFactor="1.01" vaporized=""/>
    <tripinfo id="flow_0_in.5" depart="24547.00" departLane="-690833056#0_0" departPos="5.10" departSpeed="16.28" departDelay="0.51" arrival="25151.00" arrivalLane="-690833056#0_0" arrivalPos="10.76" arrivalSpeed="7.81" duration="604.00" routeLength="3544.68" waitingTime="1.00" waitingCount="1" stopTime="45.00" timeLoss="135.26" rerouteNo="1" devices="tripinfo_flow_0_in.5 routing_flow_0_in.5 fcd_flow_0_in.5" vType="car" speedFactor="1.17" vaporized=""/>
    <tripinfo id="flow_5_in.10" depart="24600.00" departLane="-687674693#1_0" departPos="0.20" departSpeed="5.45" departDelay="0.00" arrival="25211.00" arrivalLane="-687674693#1_0" arrivalPos="0.20" arrivalSpeed="2.57" duration="611.00" routeLength="3023.04" waitingTime="2.00" waitingCount="2" stopTime="45.00" timeLoss="127.92" rerouteNo="1" devices="tripinfo_flow_5_in.10 routing_flow_5_in.10 fcd_flow_5_in.10" vType="car" speedFactor="1.02" vaporized=""/>
    <tripinfo id="flow_15_in.6" depart="24562.00" departLane="27669864_0" departPos="0.20" departSpeed="4.12" departDelay="0.71" arrival="25228.00" arrivalLane="27669864_0" arrivalPos="0.20" arrivalSpeed="3.50" duration="666.00" routeLength="3692.58" waitingTime="2.00" waitingCount="2" stopTime="45.00" timeLoss="131.10" rerouteNo="1" devices="tripinfo_flow_15_in.6 routing_flow_15_in.6 fcd_flow_15_in.6" vType="car" speedFactor="0.99" vaporized=""/>
    <tripinfo id="flow_10_in.12" depart="24611.00" departLane="-687674681_0" departPos="0.20" departSpeed="0.00" departDelay="0.92" arrival="25302.00" arrivalLane="-687674681_0" arrivalPos="0.20" arrivalSpeed="10.97" duration="691.00" routeLength="2852.51" waitingTime="52.00" waitingCount="5" stopTime="45.00" timeLoss="195.54" rerouteNo="1" devices="tripinfo_flow_10_in.12 routing_flow_10_in.12 fcd_flow_10_in.12" vType="car" speedFactor="0.97" vaporized=""/>
    <tripinfo id="flow_5_in.11" depart="24720.00" departLane="-687674693#1_0" departPos="0.20" departSpeed="5.45" departDelay="0.00" arrival="25306.00" arrivalLane="-687674693#1_0" arrivalPos="0.20" arrivalSpeed="3.30" duration="586.00" routeLength="3023.04" waitingTime="2.00" waitingCount="2" stopTime="45.00" timeLoss="135.21" rerouteNo="1" devices="tripinfo_flow_5_in.11 routing_flow_5_in.11 fcd_flow_5_in.11" vType="car" speedFactor="1.10" vaporized=""/>
    <tripinfo id="flow_10_in.13" depart="24711.00" departLane="-687674681_0" departPos="0.20" departSpeed="0.00" departDelay="0.08" arrival="25308.00" arrivalLane="-687674681_0" arrivalPos="0.20" arrivalSpeed="12.01" duration="597.00" routeLength="2844.67" waitingTime="41.00" waitingCount="4" stopTime="45.00" timeLoss="179.59" rerouteNo="1" devices="tripinfo_flow_10_in.13 routing_flow_10_in.13 fcd_flow_10_in.13" vType="car" speedFactor="1.18" vaporized=""/>
    <tripinfo id="flow_5_in.12" depart="24840.00" departLane="-687674693#1_0" departPos="0.20" departSpeed="5.45" departDelay="0.00" arrival="25454.00" arrivalLane="-687674693#1_0" arrivalPos="0.20" arrivalSpeed="3.14" duration="614.00" routeLength="3023.04" waitingTime="3.00" waitingCount="3" stopTime="45.00" timeLoss="158.96" rerouteNo="1" devices="tripinfo_flow_5_in.12 routing_flow_5_in.12 fcd_flow_5_in.12" vType="car" speedFactor="1.09" vaporized=""/>
    <tripinfo id="flow_0_in.6" depart="24776.00" departLane="-690833056#0_0" departPos="5.10" departSpeed="14.31" departDelay="0.21" arrival="25464.00" arrivalLane="-690833056#0_0" arrivalPos="10.76" arrivalSpeed="8.91" duration="688.00" routeLength="3544.68" waitingTime="0.00" waitingCount="0" stopTime="45.00" timeLoss="161.26" rerouteNo="1" devices="tripinfo_flow_0_in.6 routing_flow_0_in.6 fcd_flow_0_in.6" vType="car" speedFactor="1.03" vaporized=""/>
    <tripinfo id="flow_15_in.7" depart="24755.00" departLane="27669864_0" departPos="0.20" departSpeed="4.12" departDelay="0.16" arrival="25485.00" arrivalLane="27669864_0" arrivalPos="0.20" arrivalSpeed="2.91" duration="730.00" routeLength="3692.58" waitingTime="3.00" waitingCount="3" stopTime="45.00" timeLoss="144.54" rerouteNo="1" devices="tripinfo_flow_15_in.7 routing_flow_15_in.7 fcd_flow_15_in.7" vType="car" speedFactor="0.90" vaporized=""/>
    <tripinfo id="flow_10_in.14" depart="24812.00" departLane="-687674681_0" departPos="0.20" departSpeed="0.00" departDelay="0.24" arrival="25572.00" arrivalLane="-687674681_0" arrivalPos="0.20" arrivalSpeed="9.99" duration="760.00" routeLength="2852.51" waitingTime="102.00" waitingCount="7" stopTime="45.00" timeLoss="255.02" rerouteNo="1" devices="tripinfo_flow_10_in.14 routing_flow_10_in.14 fcd_flow_10_in.14" vType="car" speedFactor="0.96" vaporized=""/>
    <tripinfo id="flow_5_in.13" depart="24960.00" departLane="-687674693#1_0" departPos="0.20" departSpeed="5.45" departDelay="0.00" arrival="25572.00" arrivalLane="-687674693#1_0" arrivalPos="0.20" arrivalSpeed="3.85" duration="612.00" routeLength="3023.04" waitingTime="4.00" waitingCount="3" stopTime="45.00" timeLoss="154.61" rerouteNo="1" devices="tripinfo_flow_5_in.13 routing_flow_5_in.13 fcd_flow_5_in.13" vType="car" speedFactor="1.09" vaporized=""/>
    <tripinfo id="flow_10_in.15" depart="24913.00" departLane="-687674681_0" departPos="0.20" departSpeed="0.00" departDelay="0.40" arrival="25576.00" arrivalLane="-687674681_0" arrivalPos="0.20" arrivalSpeed="12.08" duration="663.00" routeLength="2925.56" waitingTime="48.00" waitingCount="6" stopTime="45.00" timeLoss="189.99" rerouteNo="2" devices="tripinfo_flow_10_in.15 routing_flow_10_in.15 fcd_flow_10_in.15" vType="car" speedFactor="1.04" vaporized=""/>
    <tripinfo id="flow_15_in.8" depart="24949.00" departLane="27669864_0" departPos="0.20" departSpeed="4.12" departDelay="0.62" arrival="25597.00" arrivalLane="27669864_0" arrivalPos="0.20" arrivalSpeed="3.03" duration="648.00" routeLength="3692.58" waitingTime="2.00" waitingCount="2" stopTime="45.00" timeLoss="132.86" rerouteNo="1" devices="tripinfo_flow_15_in.8 routing_flow_15_in.8 fcd_flow_15_in.8" vType="car" speedFactor="1.04" vaporized=""/>
    <tripinfo id="flow_0_in.7" depart="25006.00" departLane="-690833056#0_0" departPos="5.10" departSpeed="13.85" departDelay="0.91" arrival="25737.00" arrivalLane="-690833056#0_0" arrivalPos="10.76" arrivalSpeed="8.43" duration="731.00" routeLength="3590.55" waitingTime="1.00" waitingCount="1" stopTime="45.00" timeLoss="183.00" rerouteNo="1" devices="tripinfo_flow_0_in.7 routing_flow_0_in.7 fcd_flow_0_in.7" vType="car" speedFactor="1.00" vaporized=""/>
    <tripinfo id="flow_10_in.16" depart="25014.00" departLane="-687674681_0" departPos="0.20" departSpeed="0.00" departDelay="0.56" arrival="25753.00" arrivalLane="-687674681_0" arrivalPos="0.20" arrivalSpeed="10.48" duration="739.00" routeLength="2925.56" waitingTime="43.00" waitingCount="6" stopTime="45.00" timeLoss="200.38" rerouteNo="1" devices="tripinfo_flow_10_in.16 routing_flow_10_in.16 fcd_flow_10_in.16" vType="car" speedFactor="0.90" vaporized=""/>
    <tripinfo id="flow_5_in.14" depart="25080.00" departLane="-687674693#1_0" departPos="0.20" departSpeed="5.45" departDelay="0.00" arrival="25773.00" arrivalLane="-687674693#1_0" arrivalPos="0.20" arrivalSpeed="3.07" duration="693.00" routeLength="3023.04" waitingTime="2.00" waitingCount="2" stopTime="45.00" timeLoss="141.74" rerouteNo="1" devices="tripinfo_flow_5_in.14 routing_flow_5_in.14 fcd_flow_5_in.14" vType="car" speedFactor="0.88" vaporized=""/>
    <tripinfo id="flow_10_in.17" depart="25115.00" departLane="-687674681_0" departPos="0.20" departSpeed="11.81" departDelay="0.72" arrival="25843.00" arrivalLane="-687674681_0" arrivalPos="0.20" arrivalSpeed="10.82" duration="728.00" routeLength="2925.56" waitingTime="8.00" waitingCount="5" stopTime="45.00" timeLoss="161.57" rerouteNo="1" devices="tripinfo_flow_10_in.17 routing_flow_10_in.17 fcd_flow_10_in.17" vType="car" speedFactor="0.85" vaporized=""/>
    <tripinfo id="flow_10_in.18" depart="25216.00" departLane="-687674681_0" departPos="0.20" departSpeed="14.12" departDelay="0.88" arrival="25870.00" arrivalLane="-687674681_0" arrivalPos="0.20" arrivalSpeed="10.02" duration="654.00" routeLength="2852.51" waitingTime="26.00" waitingCount="5" stopTime="45.00" timeLoss="177.29" rerouteNo="1" devices="tripinfo_flow_10_in.18 routing_flow_10_in.18 fcd_flow_10_in.18" vType="car" speedFactor="1.02" vaporized=""/>
    <tripinfo id="flow_5_in.15" depart="25200.00" departLane="-687674693#1_0" departPos="0.20" departSpeed="5.45" departDelay="0.00" arrival="25874.00" arrivalLane="-687674693#1_0" arrivalPos="0.20" arrivalSpeed="3.83" duration="674.00" routeLength="3023.04" waitingTime="2.00" waitingCount="2" stopTime="45.00" timeLoss="245.15" rerouteNo="1" devices="tripinfo_flow_5_in.15 routing_flow_5_in.15 fcd_flow_5_in.15" vType="car" speedFactor="1.17" vaporized=""/>
    <tripinfo id="flow_0_in.8" depart="25235.00" departLane="-690833056#0_0" departPos="5.10" departSpeed="15.22" departDelay="0.61" arrival="25888.00" arrivalLane="-690833056#0_0" arrivalPos="10.76" arrivalSpeed="7.46" duration="653.00" routeLength="3544.68" waitingTime="0.00" waitingCount="0" stopTime="45.00" timeLoss="151.98" rerouteNo="1" devices="tripinfo_flow_0_in.8 routing_flow_0_in.8 fcd_flow_0_in.8" vType="car" speedFactor="1.10" vaporized=""/>
    <tripinfo id="flow_15_in.9" depart="25142.00" departLane="27669864_0" departPos="0.20" departSpeed="4.12" departDelay="0.07" arrival="25910.00" arrivalLane="27669864_0" arrivalPos="0.20" arrivalSpeed="2.63" duration="768.00" routeLength="3692.58" waitingTime="2.00" waitingCount="2" stopTime="45.00" timeLoss="152.86" rerouteNo="1" devices="tripinfo_flow_15_in.9 routing_flow_15_in.9 fcd_flow_15_in.9" vType="car" speedFactor="0.85" vaporized=""/>
    <tripinfo id="flow_10_in.19" depart="25316.00" departLane="-687674681_0" departPos="0.20" departSpeed="13.93" departDelay="0.04" arrival="25956.00" arrivalLane="-687674681_0" arrivalPos="0.20" arrivalSpeed="12.02" duration="640.00" routeLength="2852.51" waitingTime="5.00" waitingCount="5" stopTime="45.00" timeLoss="157.90" rerouteNo="1" devices="tripinfo_flow_10_in.19 routing_flow_10_in.19 fcd_flow_10_in.19" vType="car" speedFactor="1.00" vaporized=""/>
    <tripinfo id="flow_5_in.16" depart="25320.00" departLane="-687674693#1_0" departPos="0.20" departSpeed="5.45" departDelay="0.00" arrival="25963.00" arrivalLane="-687674693#1_0" arrivalPos="0.20" arrivalSpeed="3.45" duration="643.00" routeLength="3023.04" waitingTime="9.00" waitingCount="4" stopTime="45.00" timeLoss="151.08" rerouteNo="1" devices="tripinfo_flow_5_in.16 routing_flow_5_in.16 fcd_flow_5_in.16" vType="car" speedFactor="1.00" vaporized=""/>
    <tripinfo id="flow_10_in.20" depart="25417.00" departLane="-687674681_0" departPos="0.20" departSpeed="15.87" departDelay="0.20" arrival="26021.00" arrivalLane="-687674681_0" arrivalPos="0.20" arrivalSpeed="10.83" duration="604.00" routeLength="2917.72" waitingTime="3.00" waitingCount="3" stopTime="45.00" timeLoss="171.66" rerouteNo="3" devices="tripinfo_flow_10_in.20 routing_flow_10_in.20 fcd_flow_10_in.20" vType="car" speedFactor="1.14" vaporized=""/>
    <tripinfo id="flow_5_in.17" depart="25440.00" departLane="-687674693#1_0" departPos="0.20" departSpeed="5.45" departDelay="0.00" arrival="26058.00" arrivalLane="-687674693#1_0" arrivalPos="0.20" arrivalSpeed="3.59" duration="618.00" routeLength="3023.04" waitingTime="3.00" waitingCount="3" stopTime="45.00" timeLoss="137.99" rerouteNo="1" devices="tripinfo_flow_5_in.17 routing_flow_5_in.17 fcd_flow_5_in.17" vType="car" speedFactor="1.02" vaporized=""/>
    <tripinfo id="flow_15_in.10" depart="25336.00" departLane="27669864_0" departPos="0.20" departSpeed="4.12" departDelay="0.52" arrival="26068.00" arrivalLane="27669864_0" arrivalPos="0.20" arrivalSpeed="3.02" duration="732.00" routeLength="3692.58" waitingTime="3.00" waitingCount="3" stopTime="45.00" timeLoss="144.91" rerouteNo="1" devices="tripinfo_flow_15_in.10 routing_flow_15_in.10 fcd_flow_15_in.10" vType="car" speedFactor="0.90" vaporized=""/>
    <tripinfo id="flow_0_in.9" depart="25464.00" departLane="-690833056#0_0" departPos="5.10" departSpeed="13.47" departDelay="0.31" arrival="26157.00" arrivalLane="-690833056#0_0" arrivalPos="10.76" arrivalSpeed="9.17" duration="693.00" routeLength="3590.55" waitingTime="1.00" waitingCount="1" stopTime="45.00" timeLoss="129.51" rerouteNo="1" devices="tripinfo_flow_0_in.9 routing_flow_0_in.9 fcd_flow_0_in.9" vType="car" speedFactor="0.97" vaporized=""/>
    <tripinfo id="flow_15_in.11" depart="25530.00" departLane="27669864_0" departPos="0.20" departSpeed="4.12" departDelay="0.97" arrival="26165.00" arrivalLane="27669864_0" arrivalPos="0.20" arrivalSpeed="2.79" duration="635.00" routeLength="3692.58" waitingTime="2.00" waitingCount="2" stopTime="45.00" timeLoss="148.87" rerouteNo="1" devices="tripinfo_flow_15_in.11 routing_flow_15_in.11 fcd_flow_15_in.11" vType="car" speedFactor="1.12" vaporized=""/>
    <tripinfo id="flow_5_in.18" depart="25560.00" departLane="-687674693#1_0" departPos="0.20" departSpeed="5.45" departDelay="0.00" arrival="26180.00" arrivalLane="-687674693#1_0" arrivalPos="0.20" arrivalSpeed="3.04" duration="620.00" routeLength="3023.04" waitingTime="2.00" waitingCount="2" stopTime="45.00" timeLoss="136.40" rerouteNo="1" devices="tripinfo_flow_5_in.18 routing_flow_5_in.18 fcd_flow_5_in.18" vType="car" speedFactor="1.02" vaporized=""/>