<?xml version="1.0" encoding="UTF-8"?>

<!-- generated on 2026-04-22T16:40:12.422625+02:00 by Eclipse SUMO GUI 1.26.0
<sumoConfiguration xmlns:xsi="http://www.w3.org/2001/XMLSchema-instance" xsi:noNamespaceSchemaLocation="http://sumo.dlr.de/xsd/sumoConfiguration.xsd">

    <input>
        <net-file value="C:\Users\neill\Github\tokai-sim\sim\sumo\bergvliet.net.xml"/>
        <route-files value="C:\Users\neill\Github\tokai-sim\sim\sumo\demand-H.rou.xml"/>
        <additional-files value="C:\Users\neill\Github\tokai-sim\sim\sumo\speed-humps.add.xml"/>
    </input>

    <output>
        <fcd-output value="C:\Users\neill\Github\tokai-sim\sim\sumo\fcd-H.xml"/>
        <tripinfo-output value="C:\Users\neill\Github\tokai-sim\sim\sumo\tripinfo-H.xml"/>
    </output>

    <time>
        <begin value="23400"/>
        <end value="32400"/>
        <step-length value="1"/>
    </time>

    <processing>
        <time-to-teleport value="-1"/>
    </processing>

    <routing>
        <routing-algorithm value="astar"/>
        <device.rerouting.probability value="1.0"/>
        <device.rerouting.period value="60"/>
        <device.rerouting.pre-period value="0"/>
    </routing>

    <report>
        <no-warnings value="false"/>
        <no-step-log value="true"/>
    </report>

    <fcd_device>
        <device.fcd.period value="30"/>
    </fcd_device>

</sumoConfiguration>
-->

<tripinfos xmlns:xsi="http://www.w3.org/2001/XMLSchema-instance" xsi:noNamespaceSchemaLocation="http://sumo.dlr.de/xsd/tripinfo_file.xsd">
    <tripinfo id="flow_1_out.0" depart="23401.00" departLane="-27669895#0_0" departPos="5.10" departSpeed="9.91" departDelay="1.00" arrival="23545.00" arrivalLane="-687674693#1_0" arrivalPos="0.20" arrivalSpeed="3.83" duration="144.00" routeLength="1571.10" waitingTime="1.00" waitingCount="1" stopTime="0.00" timeLoss="35.20" rerouteNo="1" devices="tripinfo_flow_1_out.0 routing_flow_1_out.0 fcd_flow_1_out.0" vType="car" speedFactor="1.08" vaporized=""/>
    <tripinfo id="flow_0_out.0" depart="23400.00" departLane="-27669895#0_0" departPos="5.10" departSpeed="13.03" departDelay="0.00" arrival="23574.00" arrivalLane="-690833056#0_0" arrivalPos="10.76" arrivalSpeed="9.56" duration="174.00" routeLength="1674.47" waitingTime="0.00" waitingCount="0" stopTime="0.00" timeLoss="27.58" rerouteNo="1" devices="tripinfo_flow_0_out.0 routing_flow_0_out.0 fcd_flow_0_out.0" vType="car" speedFactor="0.94" vaporized=""/>
    <tripinfo id="flow_2_out.0" depart="23402.00" departLane="-27669895#0_0" departPos="5.10" departSpeed="4.89" departDelay="2.00" arrival="23592.00" arrivalLane="-687674681_0" arrivalPos="0.20" arrivalSpeed="9.85" duration="190.00" routeLength="1346.47" waitingTime="24.00" waitingCount="4" stopTime="0.00" timeLoss="65.81" rerouteNo="1" devices="tripinfo_flow_2_out.0 routing_flow_2_out.0 fcd_flow_2_out.0" vType="car" speedFactor="0.83" vaporized=""/>
    <tripinfo id="flow_3_out.0" depart="23404.00" departLane="-27669895#0_0" departPos="5.10" departSpeed="3.50" departDelay="4.00" arrival="23612.00" arrivalLane="27669864_0" arrivalPos="0.20" arrivalSpeed="2.75" duration="208.00" routeLength="2050.42" waitingTime="3.00" waitingCount="1" stopTime="0.00" timeLoss="42.85" rerouteNo="1" devices="tripinfo_flow_3_out.0 routing_flow_3_out.0 fcd_flow_3_out.0" vType="car" speedFactor="0.89" vaporized=""/>
    <tripinfo id="flow_2_out.1" depart="23476.00" departLane="-27669895#0_0" departPos="5.10" departSpeed="11.90" departDelay="0.02" arrival="23682.00" arrivalLane="-687674681_0" arrivalPos="0.20" arrivalSpeed="10.13" duration="206.00" routeLength="1346.47" waitingTime="49.00" waitingCount="4" stopTime="0.00" timeLoss="85.35" rerouteNo="1" devices="tripinfo_flow_2_out.1 routing_flow_2_out.1 fcd_flow_2_out.1" vType="car" speedFactor="0.86" vaporized=""/>
    <tripinfo id="flow_1_out.1" depart="23544.00" departLane="-27669895#0_0" departPos="5.10" departSpeed="10.89" departDelay="1.14" arrival="23686.00" arrivalLane="-687674693#1_0" arrivalPos="0.20" arrivalSpeed="3.33" duration="142.00" routeLength="1571.10" waitingTime="1.00" waitingCount="1" stopTime="0.00" timeLoss="35.94" rerouteNo="1" devices="tripinfo_flow_1_out.1 routing_flow_1_out.1 fcd_flow_1_out.1" vType="car" speedFactor="1.12" vaporized=""/>
    <tripinfo id="flow_2_out.2" depart="23552.00" departLane="-27669895#0_0" departPos="5.10" departSpeed="12.87" departDelay="0.04" arrival="23696.00" arrivalLane="-687674681_0" arrivalPos="0.20" arrivalSpeed="11.40" duration="144.00" routeLength="1346.47" waitingTime="3.00" waitingCount="3" stopTime="0.00" timeLoss="31.80" rerouteNo="1" devices="tripinfo_flow_2_out.2 routing_flow_2_out.2 fcd_flow_2_out.2" vType="car" speedFactor="0.93" vaporized=""/>
    <tripinfo id="flow_0_out.1" depart="23543.00" departLane="-27669895#0_0" departPos="5.10" departSpeed="14.26" departDelay="0.14" arrival="23702.00" arrivalLane="-690833056#0_0" arrivalPos="10.76" arrivalSpeed="9.22" duration="159.00" routeLength="1674.47" waitingTime="0.00" waitingCount="0" stopTime="0.00" timeLoss="25.86" rerouteNo="1" devices="tripinfo_flow_0_out.1 routing_flow_0_out.1 fcd_flow_0_out.1" vType="car" speedFactor="1.03" vaporized=""/>
    <tripinfo id="flow_2_out.3" depart="23628.00" departLane="-27669895#0_0" departPos="5.10" departSpeed="13.08" departDelay="0.06" arrival="23774.00" arrivalLane="-687674681_0" arrivalPos="0.20" arrivalSpeed="11.01" duration="146.00" routeLength="1346.47" waitingTime="3.00" waitingCount="3" stopTime="0.00" timeLoss="36.43" rerouteNo="1" devices="tripinfo_flow_2_out.3 routing_flow_2_out.3 fcd_flow_2_out.3" vType="car" speedFactor="0.94" vaporized=""/>
    <tripinfo id="flow_0_out.2" depart="23686.00" departLane="-27669895#0_0" departPos="5.10" departSpeed="16.09" departDelay="0.29" arrival="23831.00" arrivalLane="-690833056#0_0" arrivalPos="10.76" arrivalSpeed="7.76" duration="145.00" routeLength="1674.47" waitingTime="0.00" waitingCount="0" stopTime="0.00" timeLoss="26.08" rerouteNo="1" devices="tripinfo_flow_0_out.2 routing_flow_0_out.2 fcd_flow_0_out.2" vType="car" speedFactor="1.16" vaporized=""/>
    <tripinfo id="flow_1_out.2" depart="23687.00" departLane="-27669895#0_0" departPos="5.10" departSpeed="13.69" departDelay="1.29" arrival="23840.00" arrivalLane="-687674693#1_0" arrivalPos="0.20" arrivalSpeed="3.16" duration="153.00" routeLength="1571.10" waitingTime="1.00" waitingCount="1" stopTime="0.00" timeLoss="37.17" rerouteNo="1" devices="tripinfo_flow_1_out.2 routing_flow_1_out.2 fcd_flow_1_out.2" vType="car" speedFactor="1.01" vaporized=""/>
    <tripinfo id="flow_2_out.4" depart="23704.00" departLane="-27669895#0_0" departPos="5.10" departSpeed="12.36" departDelay="0.08" arrival="23861.00" arrivalLane="-687674681_0" arrivalPos="0.20" arrivalSpeed="11.60" duration="157.00" routeLength="1346.47" waitingTime="7.00" waitingCount="4" stopTime="0.00" timeLoss="40.67" rerouteNo="1" devices="tripinfo_flow_2_out.4 routing_flow_2_out.4 fcd_flow_2_out.4" vType="car" speedFactor="0.89" vaporized=""/>
    <tripinfo id="flow_1_in.0" depart="23400.00" departLane="-687674693#1_0" departPos="0.20" departSpeed="5.45" departDelay="0.00" arrival="23880.00" arrivalLane="school_internal_in_0" arrivalPos="343.55" arrivalSpeed="1.28" duration="480.00" routeLength="1578.11" waitingTime="1.00" waitingCount="1" stopTime="45.00" timeLoss="100.02" rerouteNo="1" devices="tripinfo_flow_1_in.0 routing_flow_1_in.0 fcd_flow_1_in.0" vType="car" speedFactor="1.01" vaporized=""/>
    <tripinfo id="flow_2_in.0" depart="23400.00" departLane="-687674681_0" departPos="0.20" departSpeed="14.31" departDelay="0.00" arrival="23890.00" arrivalLane="school_internal_in_0" arrivalPos="343.55" arrivalSpeed="1.03" duration="490.00" routeLength="1632.21" waitingTime="1.00" waitingCount="1" stopTime="45.00" timeLoss="110.14" rerouteNo="1" devices="tripinfo_flow_2_in.0 routing_flow_2_in.0 fcd_flow_2_in.0" vType="car" speedFactor="1.03" vaporized=""/>
    <tripinfo id="flow_3_in.0" depart="23400.00" departLane="27669864_0" departPos="0.20" departSpeed="4.12" departDelay="0.00" arrival="23898.00" arrivalLane="school_internal_in_0" arrivalPos="343.55" arrivalSpeed="0.82" duration="498.00" routeLength="1768.33" waitingTime="1.00" waitingCount="1" stopTime="45.00" timeLoss="115.33" rerouteNo="1" devices="tripinfo_flow_3_in.0 routing_flow_3_in.0 fcd_flow_3_in.0" vType="car" speedFactor="1.05" vaporized=""/>
    <tripinfo id="flow_0_in.0" depart="23400.00" departLane="-690833056#0_0" departPos="5.10" departSpeed="14.72" departDelay="0.00" arrival="23906.00" arrivalLane="school_internal_in_0" arrivalPos="343.55" arrivalSpeed="1.29" duration="506.00" routeLength="1996.38" waitingTime="0.00" waitingCount="0" stopTime="45.00" timeLoss="110.94" rerouteNo="1" devices="tripinfo_flow_0_in.0 routing_flow_0_in.0 fcd_flow_0_in.0" vType="car" speedFactor="1.06" vaporized=""/>
    <tripinfo id="flow_2_out.5" depart="23780.00" departLane="-27669895#0_0" departPos="5.10" departSpeed="12.12" departDelay="0.10" arrival="23952.00" arrivalLane="-687674681_0" arrivalPos="0.20" arrivalSpeed="10.31" duration="172.00" routeLength="1346.47" waitingTime="19.00" waitingCount="4" stopTime="0.00" timeLoss="54.16" rerouteNo="1" devices="tripinfo_flow_2_out.5 routing_flow_2_out.5 fcd_flow_2_out.5" vType="car" speedFactor="0.87" vaporized=""/>
    <tripinfo id="flow_1_out.3" depart="23830.00" departLane="-27669895#0_0" departPos="5.10" departSpeed="9.91" departDelay="1.43" arrival="23988.00" arrivalLane="-687674693#1_0" arrivalPos="0.20" arrivalSpeed="2.65" duration="158.00" routeLength="1571.10" waitingTime="1.00" waitingCount="1" stopTime="0.00" timeLoss="32.31" rerouteNo="1" devices="tripinfo_flow_1_out.3 routing_flow_1_out.3 fcd_flow_1_out.3" vType="car" speedFactor="0.93" vaporized=""/>
    <tripinfo id="flow_0_out.3" depart="23829.00" departLane="-27669895#0_0" departPos="5.10" departSpeed="13.18" departDelay="0.43" arrival="24002.00" arrivalLane="-690833056#0_0" arrivalPos="10.76" arrivalSpeed="8.81" duration="173.00" routeLength="1674.47" waitingTime="0.00" waitingCount="0" stopTime="0.00" timeLoss="27.11" rerouteNo="1" devices="tripinfo_flow_0_out.3 routing_flow_0_out.3 fcd_flow_0_out.3" vType="car" speedFactor="0.95" vaporized=""/>
    <tripinfo id="flow_2_in.1" depart="23476.00" departLane="-687674681_0" departPos="0.20" departSpeed="0.00" departDelay="0.02" arrival="24016.00" arrivalLane="school_internal_in_0" arrivalPos="343.55" arrivalSpeed="0.96" duration="540.00" routeLength="1632.21" waitingTime="14.00" waitingCount="2" stopTime="45.00" timeLoss="125.65" rerouteNo="1" devices="tripinfo_flow_2_in.1 routing_flow_2_in.1 fcd_flow_2_in.1" vType="car" speedFactor="0.94" vaporized=""/>
    <tripinfo id="flow_1_in.1" depart="23545.00" departLane="-687674693#1_0" departPos="0.20" departSpeed="5.45" departDelay="2.14" arrival="24025.00" arrivalLane="school_internal_in_0" arrivalPos="343.55" arrivalSpeed="1.38" duration="480.00" routeLength="1578.11" waitingTime="1.00" waitingCount="1" stopTime="45.00" timeLoss="111.28" rerouteNo="1" devices="tripinfo_flow_1_in.1 routing_flow_1_in.1 fcd_flow_1_in.1" vType="car" speedFactor="1.05" vaporized=""/>
    <tripinfo id="flow_0_in.1" depart="23543.00" departLane="-690833056#0_0" departPos="5.10" departSpeed="15.15" departDelay="0.14" arrival="24033.00" arrivalLane="school_internal_in_0" arrivalPos="343.55" arrivalSpeed="1.45" duration="490.00" routeLength="1996.38" waitingTime="0.00" waitingCount="0" stopTime="45.00" timeLoss="105.10" rerouteNo="1" devices="tripinfo_flow_0_in.1 routing_flow_0_in.1 fcd_flow_0_in.1" vType="car" speedFactor="1.09" vaporized=""/>
    <tripinfo id="flow_2_out.6" depart="23856.00" departLane="-27669895#0_0" departPos="5.10" departSpeed="16.03" departDelay="0.11" arrival="24034.00" arrivalLane="-687674681_0" arrivalPos="0.20" arrivalSpeed="7.84" duration="178.00" routeLength="1338.63" waitingTime="51.00" waitingCount="3" stopTime="0.00" timeLoss="89.84" rerouteNo="1" devices="tripinfo_flow_2_out.6 routing_flow_2_out.6 fcd_flow_2_out.6" vType="car" speedFactor="1.15" vaporized=""/>
    <tripinfo id="flow_2_out.7" depart="23932.00" departLane="-27669895#0_0" departPos="5.10" departSpeed="16.28" departDelay="0.13" arrival="24058.00" arrivalLane="-687674681_0" arrivalPos="0.20" arrivalSpeed="8.69" duration="126.00" routeLength="1338.63" waitingTime="2.00" waitingCount="2" stopTime="0.00" timeLoss="39.05" rerouteNo="1" devices="tripinfo_flow_2_out.7 routing_flow_2_out.7 fcd_flow_2_out.7" vType="car" speedFactor="1.17" vaporized=""/>
    <tripinfo id="flow_2_in.2" depart="23552.00" departLane="-687674681_0" departPos="0.20" departSpeed="0.00" departDelay="0.04" arrival="24092.00" arrivalLane="school_internal_in_0" arrivalPos="343.55" arrivalSpeed="1.35" duration="540.00" routeLength="1705.26" waitingTime="28.00" waitingCount="2" stopTime="45.00" timeLoss="140.49" rerouteNo="1" devices="tripinfo_flow_2_in.2 routing_flow_2_in.2 fcd_flow_2_in.2" vType="car" speedFactor="0.99" vaporized=""/>
    <tripinfo id="flow_1_out.4" depart="23973.00" departLane="-27669895#0_0" departPos="5.10" departSpeed="11.67" departDelay="1.57" arrival="24109.00" arrivalLane="-687674693#1_0" arrivalPos="0.20" arrivalSpeed="3.41" duration="136.00" routeLength="1571.10" waitingTime="1.00" waitingCount="1" stopTime="0.00" timeLoss="34.18" rerouteNo="1" devices="tripinfo_flow_1_out.4 routing_flow_1_out.4 fcd_flow_1_out.4" vType="car" speedFactor="1.18" vaporized=""/>
    <tripinfo id="flow_0_out.4" depart="23972.00" departLane="-27669895#0_0" departPos="5.10" departSpeed="14.16" departDelay="0.57" arrival="24135.00" arrivalLane="-690833056#0_0" arrivalPos="10.76" arrivalSpeed="8.06" duration="163.00" routeLength="1674.47" waitingTime="0.00" waitingCount="0" stopTime="0.00" timeLoss="28.50" rerouteNo="1" devices="tripinfo_flow_0_out.4 routing_flow_0_out.4 fcd_flow_0_out.4" vType="car" speedFactor="1.02" vaporized=""/>
    <tripinfo id="flow_2_out.8" depart="24008.00" departLane="-27669895#0_0" departPos="5.10" departSpeed="12.51" departDelay="0.15" arrival="24159.00" arrivalLane="-687674681_0" arrivalPos="0.20" arrivalSpeed="10.08" duration="151.00" routeLength="1346.47" waitingTime="3.00" waitingCount="3" stopTime="0.00" timeLoss="36.53" rerouteNo="1" devices="tripinfo_flow_2_out.8 routing_flow_2_out.8 fcd_flow_2_out.8" vType="car" speedFactor="0.90" vaporized=""/>
    <tripinfo id="flow_1_in.2" depart="23686.00" departLane="-687674693#1_0" departPos="0.20" departSpeed="5.45" departDelay="0.29" arrival="24166.00" arrivalLane="school_internal_in_0" arrivalPos="343.55" arrivalSpeed="0.83" duration="480.00" routeLength="1578.11" waitingTime="2.00" waitingCount="2" stopTime="45.00" timeLoss="101.00" rerouteNo="1" devices="tripinfo_flow_1_in.2 routing_flow_1_in.2 fcd_flow_1_in.2" vType="car" speedFactor="1.02" vaporized=""/>
    <tripinfo id="flow_2_in.3" depart="23628.00" departLane="-687674681_0" departPos="0.20" departSpeed="0.00" departDelay="0.06" arrival="24227.00" arrivalLane="school_internal_in_0" arrivalPos="343.55" arrivalSpeed="1.13" duration="599.00" routeLength="1632.21" waitingTime="42.00" waitingCount="2" stopTime="45.00" timeLoss="161.46" rerouteNo="1" devices="tripinfo_flow_2_in.3 routing_flow_2_in.3 fcd_flow_2_in.3" vType="car" speedFactor="0.88" vaporized=""/>
    <tripinfo id="flow_2_out.9" depart="24084.00" departLane="-27669895#0_0" departPos="5.10" departSpeed="13.29" departDelay="0.17" arrival="24228.00" arrivalLane="-687674681_0" arrivalPos="0.20" arrivalSpeed="11.48" duration="144.00" routeLength="1346.47" waitingTime="3.00" waitingCount="3" stopTime="0.00" timeLoss="36.64" rerouteNo="1" devices="tripinfo_flow_2_out.9 routing_flow_2_out.9 fcd_flow_2_out.9" vType="car" speedFactor="0.96" vaporized=""/>
    <tripinfo id="flow_2_in.4" depart="23704.00" departLane="-687674681_0" departPos="0.20" departSpeed="13.54" departDelay="0.08" arrival="24236.00" arrivalLane="school_internal_in_0" arrivalPos="343.55" arrivalSpeed="1.28" duration="532.00" routeLength="1705.26" waitingTime="1.00" waitingCount="1" stopTime="45.00" timeLoss="126.69" rerouteNo="1" devices="tripinfo_flow_2_in.4 routing_flow_2_in.4 fcd_flow_2_in.4" vType="car" speedFactor="0.97" vaporized=""/>
    <tripinfo id="flow_0_in.2" depart="23686.00" departLane="-690833056#0_0" departPos="5.10" departSpeed="13.00" departDelay="0.29" arrival="24246.00" arrivalLane="school_internal_in_0" arrivalPos="343.55" arrivalSpeed="0.99" duration="560.00" routeLength="1996.38" waitingTime="0.00" waitingCount="0" stopTime="45.00" timeLoss="118.75" rerouteNo="1" devices="tripinfo_flow_0_in.2 routing_flow_0_in.2 fcd_flow_0_in.2" vType="car" speedFactor="0.94" vaporized=""/>
    <tripinfo id="flow_1_out.5" depart="24116.00" departLane="-27669895#0_0" departPos="5.10" departSpeed="11.47" departDelay="1.72" arrival="24257.00" arrivalLane="-687674693#1_0" arrivalPos="0.20" arrivalSpeed="3.58" duration="141.00" routeLength="1571.10" waitingTime="1.00" waitingCount="1" stopTime="0.00" timeLoss="32.30" rerouteNo="1" devices="tripinfo_flow_1_out.5 routing_flow_1_out.5 fcd_flow_1_out.5" vType="car" speedFactor="1.09" vaporized=""/>
    <tripinfo id="flow_0_out.5" depart="24115.00" departLane="-27669895#0_0" departPos="5.10" departSpeed="14.42" departDelay="0.72" arrival="24276.00" arrivalLane="-690833056#0_0" arrivalPos="10.76" arrivalSpeed="8.76" duration="161.00" routeLength="1674.47" waitingTime="0.00" waitingCount="0" stopTime="0.00" timeLoss="27.86" rerouteNo="1" devices="tripinfo_flow_0_out.5 routing_flow_0_out.5 fcd_flow_0_out.5" vType="car" speedFactor="1.04" vaporized=""/>
    <tripinfo id="flow_2_out.10" depart="24160.00" departLane="-27669895#0_0" departPos="5.10" departSpeed="12.51" departDelay="0.19" arrival="24315.00" arrivalLane="-687674681_0" arrivalPos="0.20" arrivalSpeed="11.60" duration="155.00" routeLength="1346.47" waitingTime="6.00" waitingCount="4" stopTime="0.00" timeLoss="40.72" rerouteNo="1" devices="tripinfo_flow_2_out.10 routing_flow_2_out.10 fcd_flow_2_out.10" vType="car" speedFactor="0.90" vaporized=""/>
    <tripinfo id="flow_2_in.5" depart="23780.00" departLane="-687674681_0" departPos="0.20" departSpeed="11.47" departDelay="0.10" arrival="24356.00" arrivalLane="school_internal_in_0" arrivalPos="343.55" arrivalSpeed="0.67" duration="576.00" routeLength="1632.21" waitingTime="1.00" waitingCount="1" stopTime="45.00" timeLoss="112.59" rerouteNo="1" devices="tripinfo_flow_2_in.5 routing_flow_2_in.5 fcd_flow_2_in.5" vType="car" speedFactor="0.83" vaporized=""/>
    <tripinfo id="flow_1_in.3" depart="23829.00" departLane="-687674693#1_0" departPos="0.20" departSpeed="5.45" departDelay="0.43" arrival="24364.00" arrivalLane="school_internal_in_0" arrivalPos="343.55" arrivalSpeed="1.06" duration="535.00" routeLength="1578.11" waitingTime="2.00" waitingCount="2" stopTime="45.00" timeLoss="190.25" rerouteNo="1" devices="tripinfo_flow_1_in.3 routing_flow_1_in.3 fcd_flow_1_in.3" vType="car" speedFactor="1.13" vaporized=""/>
    <tripinfo id="flow_2_in.6" depart="23856.00" departLane="-687674681_0" departPos="0.20" departSpeed="16.37" departDelay="0.11" arrival="24372.00" arrivalLane="school_internal_in_0" arrivalPos="343.55" arrivalSpeed="0.97" duration="516.00" routeLength="1705.26" waitingTime="1.00" waitingCount="1" stopTime="45.00" timeLoss="172.91" rerouteNo="1" devices="tripinfo_flow_2_in.6 routing_flow_2_in.6 fcd_flow_2_in.6" vType="car" speedFactor="1.18" vaporized=""/>
    <tripinfo id="flow_0_in.3" depart="23829.00" departLane="-690833056#0_0" departPos="5.10" departSpeed="12.74" departDelay="0.43" arrival="24390.00" arrivalLane="school_internal_in_0" arrivalPos="343.55" arrivalSpeed="1.07" duration="561.00" routeLength="1996.38" waitingTime="0.00" waitingCount="0" stopTime="45.00" timeLoss="112.87" rerouteNo="1" devices="tripinfo_flow_0_in.3 routing_flow_0_in.3 fcd_flow_0_in.3" vType="car" speedFactor="0.92" vaporized=""/>
    <tripinfo id="flow_1_out.6" depart="24259.00" departLane="-27669895#0_0" departPos="5.10" departSpeed="14.22" departDelay="1.86" arrival="24399.00" arrivalLane="-687674693#1_0" arrivalPos="0.20" arrivalSpeed="2.74" duration="140.00" routeLength="1571.10" waitingTime="1.00" waitingCount="1" stopTime="0.00" timeLoss="31.71" rerouteNo="1" devices="tripinfo_flow_1_out.6 routing_flow_1_out.6 fcd_flow_1_out.6" vType="car" speedFactor="1.10" vaporized=""/>
    <tripinfo id="flow_2_out.11" depart="24236.00" departLane="-27669895#0_0" departPos="5.10" departSpeed="11.81" departDelay="0.21" arrival="24402.00" arrivalLane="-687674681_0" arrivalPos="0.20" arrivalSpeed="10.37" duration="166.00" routeLength="1346.47" waitingTime="7.00" waitingCount="4" stopTime="0.00" timeLoss="44.24" rerouteNo="1" devices="tripinfo_flow_2_out.11 routing_flow_2_out.11 fcd_flow_2_out.11" vType="car" speedFactor="0.85" vaporized=""/>
    <tripinfo id="flow_0_out.6" depart="24258.00" departLane="-27669895#0_0" departPos="5.10" departSpeed="16.24" departDelay="0.86" arrival="24402.00" arrivalLane="-690833056#0_0" arrivalPos="10.76" arrivalSpeed="9.46" duration="144.00" routeLength="1674.47" waitingTime="0.00" waitingCount="0" stopTime="0.00" timeLoss="25.43" rerouteNo="1" devices="tripinfo_flow_0_out.6 routing_flow_0_out.6 fcd_flow_0_out.6" vType="car" speedFactor="1.17" vaporized=""/>
    <tripinfo id="flow_2_in.7" depart="23932.00" departLane="-687674681_0" departPos="0.20" departSpeed="0.00" departDelay="0.13" arrival="24436.00" arrivalLane="school_internal_in_0" arrivalPos="343.55" arrivalSpeed="0.93" duration="504.00" routeLength="1705.26" waitingTime="8.00" waitingCount="2" stopTime="45.00" timeLoss="109.46" rerouteNo="1" devices="tripinfo_flow_2_in.7 routing_flow_2_in.7 fcd_flow_2_in.7" vType="car" speedFactor="1.01" vaporized=""/>
    <tripinfo id="flow_1_in.4" depart="23972.00" departLane="-687674693#1_0" departPos="0.20" departSpeed="5.45" departDelay="0.57" arrival="24471.00" arrivalLane="school_internal_in_0" arrivalPos="343.55" arrivalSpeed="0.91" duration="499.00" routeLength="1578.11" waitingTime="1.00" waitingCount="1" stopTime="45.00" timeLoss="107.25" rerouteNo="1" devices="tripinfo_flow_1_in.4 routing_flow_1_in.4 fcd_flow_1_in.4" vType="car" speedFactor="0.97" vaporized=""/>
    <tripinfo id="flow_2_out.12" depart="24312.00" departLane="-27669895#0_0" departPos="5.10" departSpeed="13.83" departDelay="0.23" arrival="24491.00" arrivalLane="-687674681_0" arrivalPos="0.20" arrivalSpeed="11.22" duration="179.00" routeLength="1338.63" waitingTime="38.00" waitingCount="3" stopTime="0.00" timeLoss="76.98" rerouteNo="1" devices="tripinfo_flow_2_out.12 routing_flow_2_out.12 fcd_flow_2_out.12" vType="car" speedFactor="1.00" vaporized=""/>
    <tripinfo id="flow_0_in.4" depart="23972.00" departLane="-690833056#0_0" departPos="5.10" departSpeed="13.82" departDelay="0.57" arrival="24494.00" arrivalLane="school_internal_in_0" arrivalPos="343.55" arrivalSpeed="1.21" duration="522.00" routeLength="2042.25" waitingTime="1.00" waitingCount="1" stopTime="45.00" timeLoss="100.24" rerouteNo="1" devices="tripinfo_flow_0_in.4 routing_flow_0_in.4 fcd_flow_0_in.4" vType="car" speedFactor="0.99" vaporized=""/>
    <tripinfo id="flow_2_in.8" depart="24008.00" departLane="-687674681_0" departPos="0.20" departSpeed="0.00" departDelay="0.15" arrival="24502.00" arrivalLane="school_internal_in_0" arrivalPos="343.55" arrivalSpeed="0.91" duration="494.00" routeLength="1705.26" waitingTime="23.00" waitingCount="3" stopTime="45.00" timeLoss="130.90" rerouteNo="1" devices="tripinfo_flow_2_in.8 routing_flow_2_in.8 fcd_flow_2_in.8" vType="car" speedFactor="1.10" vaporized=""/>
    <tripinfo id="flow_2_out.13" depart="24388.00" departLane="-27669895#0_0" departPos="5.10" departSpeed="15.87" departDelay="0.25" arrival="24517.00" arrivalLane="-687674681_0" arrivalPos="0.20" arrivalSpeed="9.67" duration="129.00" routeLength="1338.63" waitingTime="2.00" waitingCount="2" stopTime="0.00" timeLoss="38.96" rerouteNo="1" devices="tripinfo_flow_2_out.13 routing_flow_2_out.13 fcd_flow_2_out.13" vType="car" speedFactor="1.14" vaporized=""/>
    <tripinfo id="flow_1_out.7" depart="24401.00" departLane="-27669895#0_0" departPos="5.10" departSpeed="9.80" departDelay="1.00" arrival="24544.00" arrivalLane="-687674693#1_0" arrivalPos="0.20" arrivalSpeed="2.93" duration="143.00" routeLength="1571.10" waitingTime="1.00" waitingCount="1" stopTime="0.00" timeLoss="36.00" rerouteNo="1" devices="tripinfo_flow_1_out.7 routing_flow_1_out.7 fcd_flow_1_out.7" vType="car" speedFactor="1.12" vaporized=""/>
    <tripinfo id="flow_0_out.7" depart="24400.00" departLane="-27669895#0_0" departPos="5.10" departSpeed="13.47" departDelay="0.00" arrival="24570.00" arrivalLane="-690833056#0_0" arrivalPos="10.76" arrivalSpeed="8.32" duration="170.00" routeLength="1674.47" waitingTime="0.00" waitingCount="0" stopTime="0.00" timeLoss="27.85" rerouteNo="1" devices="tripinfo_flow_0_out.7 routing_flow_0_out.7 fcd_flow_0_out.7" vType="car" speedFactor="0.97" vaporized=""/>
    <tripinfo id="flow_1_in.5" depart="24115.00" departLane="-687674693#1_0" departPos="0.20" departSpeed="5.45" departDelay="0.72" arrival="24587.00" arrivalLane="school_internal_in_0" arrivalPos="343.55" arrivalSpeed="1.41" duration="472.00" routeLength="1578.11" waitingTime="1.00" waitingCount="1" stopTime="45.00" timeLoss="102.29" rerouteNo="1" devices="tripinfo_flow_1_in.5 routing_flow_1_in.5 fcd_flow_1_in.5" vType="car" speedFactor="1.04" vaporized=""/>
    <tripinfo id="flow_2_out.14" depart="24464.00" departLane="-27669895#0_0" departPos="5.10" departSpeed="13.71" departDelay="0.27" arrival="24606.00" arrivalLane="-687674681_0" arrivalPos="0.20" arrivalSpeed="10.54" duration="142.00" routeLength="1346.47" waitingTime="3.00" waitingCount="3" stopTime="0.00" timeLoss="38.54" rerouteNo="1" devices="tripinfo_flow_2_out.14 routing_flow_2_out.14 fcd_flow_2_out.14" vType="car" speedFactor="0.99" vaporized=""/>
    <tripinfo id="flow_2_in.9" depart="24084.00" departLane="-687674681_0" departPos="0.20" departSpeed="0.00" departDelay="0.17" arrival="24610.00" arrivalLane="school_internal_in_0" arrivalPos="343.55" arrivalSpeed="1.37" duration="526.00" routeLength="1705.26" waitingTime="36.00" waitingCount="2" stopTime="45.00" timeLoss="140.52" rerouteNo="1" devices="tripinfo_flow_2_in.9 routing_flow_2_in.9 fcd_flow_2_in.9" vType="car" speedFactor="1.03" vaporized=""/>
    <tripinfo id="flow_0_in.5" depart="24115.00" departLane="-690833056#0_0" departPos="5.10" departSpeed="15.17" departDelay="0.72" arrival="24618.00" arrivalLane="school_internal_in_0" arrivalPos="343.55" arrivalSpeed="1.28" duration="503.00" routeLength="1996.38" waitingTime="0.00" waitingCount="0" stopTime="45.00" timeLoss="117.52" rerouteNo="1" devices="tripinfo_flow_0_in.5 routing_flow_0_in.5 fcd_flow_0_in.5" vType="car" speedFactor="1.09" vaporized=""/>
    <tripinfo id="flow_2_out.15" depart="24540.00" departLane="-27669895#0_0" departPos="5.10" departSpeed="12.26" departDelay="0.29" arrival="24695.00" arrivalLane="-687674681_0" arrivalPos="0.20" arrivalSpeed="10.34" duration="155.00" routeLength="1346.47" waitingTime="3.00" waitingCount="3" stopTime="0.00" timeLoss="37.50" rerouteNo="1" devices="tripinfo_flow_2_out.15 routing_flow_2_out.15 fcd_flow_2_out.15" vType="car" speedFactor="0.88" vaporized=""/>
    <tripinfo id="flow_1_out.8" depart="24544.00" departLane="-27669895#0_0" departPos="5.10" departSpeed="9.07" departDelay="1.14" arrival="24698.00" arrivalLane="-687674693#1_0" arrivalPos="0.20" arrivalSpeed="3.58" duration="154.00" routeLength="1571.10" waitingTime="1.00" waitingCount="1" stopTime="0.00" timeLoss="38.54" rerouteNo="1" devices="tripinfo_flow_1_out.8 routing_flow_1_out.8 fcd_flow_1_out.8" vType="car" speedFactor="1.02" vaporized=""/>
    <tripinfo id="flow_2_in.10" depart="24160.00" departLane="-687674681_0" departPos="0.20" departSpeed="0.00" departDelay="0.19" arrival="24714.00" arrivalLane="school_internal_in_0" arrivalPos="343.55" arrivalSpeed="1.20" duration="554.00" routeLength="1632.21" waitingTime="51.00" waitingCount="3" stopTime="45.00" timeLoss="161.49" rerouteNo="1" devices="tripinfo_flow_2_in.10 routing_flow_2_in.10 fcd_flow_2_in.10" vType="car" speedFactor="1.00" vaporized=""/>
    <tripinfo id="flow_0_out.8" depart="24543.00" departLane="-27669895#0_0" departPos="5.10" departSpeed="12.70" departDelay="0.14" arrival="24721.00" arrivalLane="-690833056#0_0" arrivalPos="10.76" arrivalSpeed="7.61" duration="178.00" routeLength="1674.47" waitingTime="0.00" waitingCount="0" stopTime="0.00" timeLoss="28.72" rerouteNo="1" devices="tripinfo_flow_0_out.8 routing_flow_0_out.8 fcd_flow_0_out.8" vType="car" speedFactor="0.91" vaporized=""/>
    <tripinfo id="flow_1_in.6" depart="24258.00" departLane="-687674693#1_0" departPos="0.20" departSpeed="5.45" departDelay="0.86" arrival="24741.00" arrivalLane="school_internal_in_0" arrivalPos="343.55" arrivalSpeed="1.29" duration="483.00" routeLength="1578.11" waitingTime="1.00" waitingCount="1" stopTime="45.00" timeLoss="105.20" rerouteNo="1" devices="tripinfo_flow_1_in.6 routing_flow_1_in.6 fcd_flow_1_in.6" vType="car" speedFactor="1.02" vaporized=""/>
    <tripinfo id="flow_2_out.16" depart="24616.00" departLane="-27669895#0_0" departPos="5.10" departSpeed="14.66" departDelay="0.30" arrival="24761.00" arrivalLane="-687674681_0" arrivalPos="0.20" arrivalSpeed="9.68" duration="145.00" routeLength="1346.47" waitingTime="5.00" waitingCount="4" stopTime="0.00" timeLoss="48.33" rerouteNo="1" devices="tripinfo_flow_2_out.16 routing_flow_2_out.16 fcd_flow_2_out.16" vType="car" speedFactor="1.06" vaporized=""/>