<?xml version="1.0" encoding="UTF-8"?>

<!-- generated on 2026-04-03T22:08:25.324364+02:00 by Eclipse SUMO sumo 1.26.0
<sumoConfiguration xmlns:xsi="http://www.w3.org/2001/XMLSchema-instance" xsi:noNamespaceSchemaLocation="http://sumo.dlr.de/xsd/sumoConfiguration.xsd">

    <input>
        <net-file value="C:\Users\neill\Github\tokai-sim\sim\sumo\bergvliet.net.xml"/>
        <route-files value="C:\Users\neill\Github\tokai-sim\sim\sumo\demand-H.rou.xml"/>
        <additional-files value="C:\Users\neill\Github\tokai-sim\sim\sumo\speed-humps.add.xml"/>
    </input>

    <output>
        <fcd-output value="C:\Users\neill\Github\tokai-sim\sim\sumo\fcd-H.xml"/>
        <tripinfo-output value="C:\Users\neill\Github\tokai-sim\sim\sumo\tripinfo-H.xml"/>
    </output>

    <time>
        <begin value="23400"/>
        <end value="32400"/>
        <step-length value="1"/>
    </time>

    <processing>
        <ignore-route-errors value="true"/>
    </processing>

    <routing>
        <routing-algorithm value="astar"/>
        <device.rerouting.probability value="1.0"/>
        <device.rerouting.period value="60"/>
        <device.rerouting.pre-period value="0"/>
    </routing>

    <report>
        <no-warnings value="true"/>
        <no-step-log value="true"/>
    </report>

    <fcd_device>
        <device.fcd.period value="30"/>
    </fcd_device>

</sumoConfiguration>
-->

<tripinfos xmlns:xsi="http://www.w3.org/2001/XMLSchema-instance" xsi:noNamespaceSchemaLocation="http://sumo.dlr.de/xsd/tripinfo_file.xsd">
    <tripinfo id="flow_5_in.0" depart="23400.00" departLane="-687674693#1_0" departPos="0.20" departSpeed="5.45" departDelay="0.00" arrival="24057.00" arrivalLane="-687674693#1_0" arrivalPos="0.20" arrivalSpeed="2.53" duration="657.00" routeLength="3023.04" waitingTime="2.00" waitingCount="2" stopTime="45.00" timeLoss="137.18" rerouteNo="1" devices="tripinfo_flow_5_in.0 routing_flow_5_in.0 fcd_flow_5_in.0" vType="car" speedFactor="0.94" vaporized=""/>
    <tripinfo id="flow_10_in.0" depart="23400.00" departLane="-687674681_0" departPos="0.20" departSpeed="14.03" departDelay="0.00" arrival="24060.00" arrivalLane="-687674681_0" arrivalPos="0.20" arrivalSpeed="10.37" duration="660.00" routeLength="2925.56" waitingTime="5.00" waitingCount="5" stopTime="45.00" timeLoss="173.44" rerouteNo="1" devices="tripinfo_flow_10_in.0 routing_flow_10_in.0 fcd_flow_10_in.0" vType="car" speedFactor="1.01" vaporized=""/>
    <tripinfo id="flow_0_in.0" depart="23400.00" departLane="-690833056#0_0" departPos="5.10" departSpeed="14.72" departDelay="0.00" arrival="24083.00" arrivalLane="-690833056#0_0" arrivalPos="10.76" arrivalSpeed="9.41" duration="683.00" routeLength="3544.68" waitingTime="10.00" waitingCount="1" stopTime="45.00" timeLoss="167.77" rerouteNo="1" devices="tripinfo_flow_0_in.0 routing_flow_0_in.0 fcd_flow_0_in.0" vType="car" speedFactor="1.06" vaporized=""/>
    <tripinfo id="flow_15_in.0" depart="23400.00" departLane="27669864_0" departPos="0.20" departSpeed="4.12" departDelay="0.00" arrival="24091.00" arrivalLane="27669864_0" arrivalPos="0.20" arrivalSpeed="3.79" duration="691.00" routeLength="3692.58" waitingTime="2.00" waitingCount="2" stopTime="45.00" timeLoss="190.01" rerouteNo="1" devices="tripinfo_flow_15_in.0 routing_flow_15_in.0 fcd_flow_15_in.0" vType="car" speedFactor="1.08" vaporized=""/>
    <tripinfo id="flow_5_in.1" depart="23472.00" departLane="-687674693#1_0" departPos="0.20" departSpeed="5.45" departDelay="0.57" arrival="24193.00" arrivalLane="-687674693#1_0" arrivalPos="0.20" arrivalSpeed="1.88" duration="721.00" routeLength="3023.04" waitingTime="2.00" waitingCount="2" stopTime="45.00" timeLoss="140.82" rerouteNo="1" devices="tripinfo_flow_5_in.1 routing_flow_5_in.1 fcd_flow_5_in.1" vType="car" speedFactor="0.83" vaporized=""/>
    <tripinfo id="flow_10_in.1" depart="23461.00" departLane="-687674681_0" departPos="0.20" departSpeed="0.00" departDelay="0.98" arrival="24221.00" arrivalLane="-687674681_0" arrivalPos="0.20" arrivalSpeed="10.03" duration="760.00" routeLength="2852.51" waitingTime="72.00" waitingCount="6" stopTime="45.00" timeLoss="291.26" rerouteNo="1" devices="tripinfo_flow_10_in.1 routing_flow_10_in.1 fcd_flow_10_in.1" vType="car" speedFactor="1.03" vaporized=""/>
    <tripinfo id="flow_15_in.1" depart="23516.00" departLane="27669864_0" departPos="0.20" departSpeed="4.12" departDelay="0.80" arrival="24226.00" arrivalLane="27669864_0" arrivalPos="0.20" arrivalSpeed="4.69" duration="710.00" routeLength="3692.58" waitingTime="2.00" waitingCount="2" stopTime="45.00" timeLoss="196.44" rerouteNo="1" devices="tripinfo_flow_15_in.1 routing_flow_15_in.1 fcd_flow_15_in.1" vType="car" speedFactor="1.05" vaporized=""/>
    <tripinfo id="flow_10_in.2" depart="23521.00" departLane="-687674681_0" departPos="0.20" departSpeed="12.31" departDelay="0.96" arrival="24226.00" arrivalLane="-687674681_0" arrivalPos="0.20" arrivalSpeed="11.12" duration="705.00" routeLength="2852.51" waitingTime="10.00" waitingCount="5" stopTime="45.00" timeLoss="165.28" rerouteNo="1" devices="tripinfo_flow_10_in.2 routing_flow_10_in.2 fcd_flow_10_in.2" vType="car" speedFactor="0.89" vaporized=""/>
    <tripinfo id="flow_10_in.3" depart="23581.00" departLane="-687674681_0" departPos="0.20" departSpeed="15.15" departDelay="0.94" arrival="24244.00" arrivalLane="-687674681_0" arrivalPos="0.20" arrivalSpeed="11.35" duration="663.00" routeLength="2925.56" waitingTime="52.00" waitingCount="5" stopTime="45.00" timeLoss="209.93" rerouteNo="1" devices="tripinfo_flow_10_in.3 routing_flow_10_in.3 fcd_flow_10_in.3" vType="car" speedFactor="1.09" vaporized=""/>
    <tripinfo id="flow_5_in.2" depart="23543.00" departLane="-687674693#1_0" departPos="0.20" departSpeed="5.45" departDelay="0.14" arrival="24255.00" arrivalLane="-687674693#1_0" arrivalPos="0.20" arrivalSpeed="2.74" duration="712.00" routeLength="3023.04" waitingTime="3.00" waitingCount="3" stopTime="45.00" timeLoss="149.17" rerouteNo="1" devices="tripinfo_flow_5_in.2 routing_flow_5_in.2 fcd_flow_5_in.2" vType="car" speedFactor="0.86" vaporized=""/>
    <tripinfo id="flow_5_in.3" depart="23615.00" departLane="-687674693#1_0" departPos="0.20" departSpeed="5.45" departDelay="0.71" arrival="24264.00" arrivalLane="-687674693#1_0" arrivalPos="0.20" arrivalSpeed="2.53" duration="649.00" routeLength="3023.04" waitingTime="18.00" waitingCount="4" stopTime="45.00" timeLoss="168.08" rerouteNo="1" devices="tripinfo_flow_5_in.3 routing_flow_5_in.3 fcd_flow_5_in.3" vType="car" speedFactor="1.03" vaporized=""/>
    <tripinfo id="flow_0_in.1" depart="23537.00" departLane="-690833056#0_0" departPos="5.10" departSpeed="13.03" departDelay="0.53" arrival="24279.00" arrivalLane="-690833056#0_0" arrivalPos="10.76" arrivalSpeed="6.87" duration="742.00" routeLength="3544.68" waitingTime="0.00" waitingCount="0" stopTime="45.00" timeLoss="166.43" rerouteNo="1" devices="tripinfo_flow_0_in.1 routing_flow_0_in.1 fcd_flow_0_in.1" vType="car" speedFactor="0.94" vaporized=""/>
    <tripinfo id="flow_15_in.2" depart="23631.00" departLane="27669864_0" departPos="0.20" departSpeed="4.12" departDelay="0.60" arrival="24305.00" arrivalLane="27669864_0" arrivalPos="0.20" arrivalSpeed="5.36" duration="674.00" routeLength="3692.58" waitingTime="6.00" waitingCount="4" stopTime="45.00" timeLoss="159.45" rerouteNo="1" devices="tripinfo_flow_15_in.2 routing_flow_15_in.2 fcd_flow_15_in.2" vType="car" speedFactor="1.05" vaporized=""/>
    <tripinfo id="flow_10_in.4" depart="23641.00" departLane="-687674681_0" departPos="0.20" departSpeed="0.00" departDelay="0.92" arrival="24311.00" arrivalLane="-687674681_0" arrivalPos="0.20" arrivalSpeed="10.62" duration="670.00" routeLength="2925.56" waitingTime="65.00" waitingCount="6" stopTime="45.00" timeLoss="230.40" rerouteNo="1" devices="tripinfo_flow_10_in.4 routing_flow_10_in.4 fcd_flow_10_in.4" vType="car" speedFactor="1.12" vaporized=""/>
    <tripinfo id="flow_10_in.6" depart="23761.00" departLane="-687674681_0" departPos="0.20" departSpeed="16.09" departDelay="0.88" arrival="24339.00" arrivalLane="-687674681_0" arrivalPos="0.20" arrivalSpeed="10.96" duration="578.00" routeLength="2917.72" waitingTime="4.00" waitingCount="4" stopTime="45.00" timeLoss="147.84" rerouteNo="2" devices="tripinfo_flow_10_in.6 routing_flow_10_in.6 fcd_flow_10_in.6" vType="car" speedFactor="1.16" vaporized=""/>
    <tripinfo id="flow_5_in.4" depart="23686.00" departLane="-687674693#1_0" departPos="0.20" departSpeed="5.45" departDelay="0.28" arrival="24351.00" arrivalLane="-687674693#1_0" arrivalPos="0.20" arrivalSpeed="3.09" duration="665.00" routeLength="3023.04" waitingTime="2.00" waitingCount="2" stopTime="45.00" timeLoss="139.91" rerouteNo="1" devices="tripinfo_flow_5_in.4 routing_flow_5_in.4 fcd_flow_5_in.4" vType="car" speedFactor="0.93" vaporized=""/>
    <tripinfo id="flow_0_in.2" depart="23673.00" departLane="-690833056#0_0" departPos="5.10" departSpeed="13.77" departDelay="0.07" arrival="24368.00" arrivalLane="-690833056#0_0" arrivalPos="10.76" arrivalSpeed="8.39" duration="695.00" routeLength="3544.68" waitingTime="1.00" waitingCount="1" stopTime="45.00" timeLoss="147.02" rerouteNo="1" devices="tripinfo_flow_0_in.2 routing_flow_0_in.2 fcd_flow_0_in.2" vType="car" speedFactor="0.99" vaporized=""/>
    <tripinfo id="flow_5_in.5" depart="23758.00" departLane="-687674693#1_0" departPos="0.20" departSpeed="5.45" departDelay="0.86" arrival="24432.00" arrivalLane="-687674693#1_0" arrivalPos="0.20" arrivalSpeed="4.53" duration="674.00" routeLength="3023.04" waitingTime="5.00" waitingCount="3" stopTime="45.00" timeLoss="154.39" rerouteNo="1" devices="tripinfo_flow_5_in.5 routing_flow_5_in.5 fcd_flow_5_in.5" vType="car" speedFactor="0.94" vaporized=""/>
    <tripinfo id="flow_15_in.3" depart="23746.00" departLane="27669864_0" departPos="0.20" departSpeed="4.12" departDelay="0.40" arrival="24453.00" arrivalLane="27669864_0" arrivalPos="0.20" arrivalSpeed="4.44" duration="707.00" routeLength="3692.58" waitingTime="2.00" waitingCount="2" stopTime="45.00" timeLoss="145.67" rerouteNo="1" devices="tripinfo_flow_15_in.3 routing_flow_15_in.3 fcd_flow_15_in.3" vType="car" speedFactor="0.94" vaporized=""/>
    <tripinfo id="flow_5_in.6" depart="23829.00" departLane="-687674693#1_0" departPos="0.20" departSpeed="5.45" departDelay="0.43" arrival="24468.00" arrivalLane="-687674693#1_0" arrivalPos="0.20" arrivalSpeed="3.41" duration="639.00" routeLength="3023.04" waitingTime="2.00" waitingCount="2" stopTime="45.00" timeLoss="136.54" rerouteNo="1" devices="tripinfo_flow_5_in.6 routing_flow_5_in.6 fcd_flow_5_in.6" vType="car" speedFactor="0.97" vaporized=""/>
    <tripinfo id="flow_0_in.3" depart="23810.00" departLane="-690833056#0_0" departPos="5.10" departSpeed="14.14" departDelay="0.60" arrival="24488.00" arrivalLane="-690833056#0_0" arrivalPos="10.76" arrivalSpeed="8.42" duration="678.00" routeLength="3647.13" waitingTime="0.00" waitingCount="0" stopTime="45.00" timeLoss="137.12" rerouteNo="2" devices="tripinfo_flow_0_in.3 routing_flow_0_in.3 fcd_flow_0_in.3" vType="car" speedFactor="1.02" vaporized=""/>
    <tripinfo id="flow_10_in.5" depart="23701.00" departLane="-687674681_0" departPos="0.20" departSpeed="12.20" departDelay="0.90" arrival="24492.00" arrivalLane="-687674681_0" arrivalPos="0.20" arrivalSpeed="10.81" duration="791.00" routeLength="2852.51" waitingTime="87.00" waitingCount="7" stopTime="45.00" timeLoss="247.32" rerouteNo="1" devices="tripinfo_flow_10_in.5 routing_flow_10_in.5 fcd_flow_10_in.5" vType="car" speedFactor="0.88" vaporized=""/>
    <tripinfo id="flow_10_in.7" depart="23821.00" departLane="-687674681_0" departPos="0.20" departSpeed="0.00" departDelay="0.86" arrival="24516.00" arrivalLane="-687674681_0" arrivalPos="0.20" arrivalSpeed="12.28" duration="695.00" routeLength="2925.56" waitingTime="74.00" waitingCount="6" stopTime="45.00" timeLoss="209.50" rerouteNo="3" devices="tripinfo_flow_10_in.7 routing_flow_10_in.7 fcd_flow_10_in.7" vType="car" speedFactor="1.01" vaporized=""/>
    <tripinfo id="flow_5_in.7" depart="23901.00" departLane="-687674693#1_0" departPos="0.20" departSpeed="5.45" departDelay="1.00" arrival="24617.00" arrivalLane="-687674693#1_0" arrivalPos="0.20" arrivalSpeed="1.98" duration="716.00" routeLength="3023.04" waitingTime="5.00" waitingCount="3" stopTime="45.00" timeLoss="159.46" rerouteNo="1" devices="tripinfo_flow_5_in.7 routing_flow_5_in.7 fcd_flow_5_in.7" vType="car" speedFactor="0.87" vaporized=""/>
    <tripinfo id="flow_15_in.4" depart="23861.00" departLane="27669864_0" departPos="0.20" departSpeed="4.12" departDelay="0.20" arrival="24631.00" arrivalLane="27669864_0" arrivalPos="0.20" arrivalSpeed="2.35" duration="770.00" routeLength="3692.58" waitingTime="15.00" waitingCount="4" stopTime="45.00" timeLoss="175.01" rerouteNo="1" devices="tripinfo_flow_15_in.4 routing_flow_15_in.4 fcd_flow_15_in.4" vType="car" speedFactor="0.89" vaporized=""/>
    <tripinfo id="flow_5_in.8" depart="23972.00" departLane="-687674693#1_0" departPos="0.20" departSpeed="5.45" departDelay="0.57" arrival="24641.00" arrivalLane="-687674693#1_0" arrivalPos="0.20" arrivalSpeed="3.54" duration="669.00" routeLength="3023.04" waitingTime="2.00" waitingCount="2" stopTime="45.00" timeLoss="227.04" rerouteNo="1" devices="tripinfo_flow_5_in.8 routing_flow_5_in.8 fcd_flow_5_in.8" vType="car" speedFactor="1.13" vaporized=""/>
    <tripinfo id="flow_10_in.8" depart="23881.00" departLane="-687674681_0" departPos="0.20" departSpeed="11.47" departDelay="0.84" arrival="24673.00" arrivalLane="-687674681_0" arrivalPos="0.20" arrivalSpeed="8.71" duration="792.00" routeLength="2925.56" waitingTime="28.00" waitingCount="5" stopTime="45.00" timeLoss="206.60" rerouteNo="1" devices="tripinfo_flow_10_in.8 routing_flow_10_in.8 fcd_flow_10_in.8" vType="car" speedFactor="0.83" vaporized=""/>
    <tripinfo id="flow_10_in.9" depart="23941.00" departLane="-687674681_0" departPos="0.20" departSpeed="12.74" departDelay="0.82" arrival="24677.00" arrivalLane="-687674681_0" arrivalPos="0.20" arrivalSpeed="10.56" duration="736.00" routeLength="2925.56" waitingTime="29.00" waitingCount="5" stopTime="45.00" timeLoss="207.15" rerouteNo="1" devices="tripinfo_flow_10_in.9 routing_flow_10_in.9 fcd_flow_10_in.9" vType="car" speedFactor="0.92" vaporized=""/>
    <tripinfo id="flow_10_in.10" depart="24001.00" departLane="-687674681_0" departPos="0.20" departSpeed="0.00" departDelay="0.80" arrival="24688.00" arrivalLane="-687674681_0" arrivalPos="0.20" arrivalSpeed="10.19" duration="687.00" routeLength="2900.68" waitingTime="37.00" waitingCount="6" stopTime="45.00" timeLoss="261.86" rerouteNo="3" devices="tripinfo_flow_10_in.10 routing_flow_10_in.10 fcd_flow_10_in.10" vType="car" speedFactor="1.18" vaporized=""/>
    <tripinfo id="flow_5_in.9" depart="24043.00" departLane="-687674693#1_0" departPos="0.20" departSpeed="5.45" departDelay="0.14" arrival="24701.00" arrivalLane="-687674693#1_0" arrivalPos="0.20" arrivalSpeed="4.09" duration="658.00" routeLength="3023.04" waitingTime="2.00" waitingCount="2" stopTime="45.00" timeLoss="219.12" rerouteNo="1" devices="tripinfo_flow_5_in.9 routing_flow_5_in.9 fcd_flow_5_in.9" vType="car" speedFactor="1.15" vaporized=""/>
    <tripinfo id="flow_0_in.4" depart="23946.00" departLane="-690833056#0_0" departPos="5.10" departSpeed="13.18" departDelay="0.13" arrival="24702.00" arrivalLane="-690833056#0_0" arrivalPos="10.76" arrivalSpeed="9.50" duration="756.00" routeLength="3590.55" waitingTime="39.00" waitingCount="2" stopTime="45.00" timeLoss="180.87" rerouteNo="1" devices="tripinfo_flow_0_in.4 routing_flow_0_in.4 fcd_flow_0_in.4" vType="car" speedFactor="0.95" vaporized=""/>
    <tripinfo id="flow_0_in.5" depart="24083.00" departLane="-690833056#0_0" departPos="5.10" departSpeed="16.28" departDelay="0.67" arrival="24724.00" arrivalLane="-690833056#0_0" arrivalPos="10.76" arrivalSpeed="8.64" duration="641.00" routeLength="3544.68" waitingTime="0.00" waitingCount="0" stopTime="45.00" timeLoss="170.66" rerouteNo="1" devices="tripinfo_flow_0_in.5 routing_flow_0_in.5 fcd_flow_0_in.5" vType="car" speedFactor="1.17" vaporized=""/>
    <tripinfo id="flow_15_in.5" depart="23976.00" departLane="27669864_0" departPos="0.20" departSpeed="4.12" departDelay="0.00" arrival="24732.00" arrivalLane="27669864_0" arrivalPos="0.20" arrivalSpeed="2.59" duration="756.00" routeLength="3692.58" waitingTime="36.00" waitingCount="4" stopTime="45.00" timeLoss="185.93" rerouteNo="1" devices="tripinfo_flow_15_in.5 routing_flow_15_in.5 fcd_flow_15_in.5" vType="car" speedFactor="0.93" vaporized=""/>
    <tripinfo id="flow_10_in.11" depart="24061.00" departLane="-687674681_0" departPos="0.20" departSpeed="13.96" departDelay="0.78" arrival="24762.00" arrivalLane="-687674681_0" arrivalPos="0.20" arrivalSpeed="10.29" duration="701.00" routeLength="2844.67" waitingTime="51.00" waitingCount="4" stopTime="45.00" timeLoss="220.83" rerouteNo="4" devices="tripinfo_flow_10_in.11 routing_flow_10_in.11 fcd_flow_10_in.11" vType="car" speedFactor="1.01" vaporized=""/>
    <tripinfo id="flow_5_in.10" depart="24115.00" departLane="-687674693#1_0" departPos="0.20" departSpeed="5.45" departDelay="0.71" arrival="24782.00" arrivalLane="-687674693#1_0" arrivalPos="0.20" arrivalSpeed="3.69" duration="667.00" routeLength="3023.04" waitingTime="37.00" waitingCount="3" stopTime="45.00" timeLoss="182.37" rerouteNo="1" devices="tripinfo_flow_5_in.10 routing_flow_5_in.10 fcd_flow_5_in.10" vType="car" speedFactor="1.02" vaporized=""/>
    <tripinfo id="flow_5_in.11" depart="24186.00" departLane="-687674693#1_0" departPos="0.20" departSpeed="5.45" departDelay="0.28" arrival="24797.00" arrivalLane="-687674693#1_0" arrivalPos="0.20" arrivalSpeed="3.63" duration="611.00" routeLength="3023.04" waitingTime="2.00" waitingCount="2" stopTime="45.00" timeLoss="159.07" rerouteNo="1" devices="tripinfo_flow_5_in.11 routing_flow_5_in.11 fcd_flow_5_in.11" vType="car" speedFactor="1.10" vaporized=""/>
    <tripinfo id="flow_15_in.6" depart="24092.00" departLane="27669864_0" departPos="0.20" departSpeed="4.12" departDelay="0.80" arrival="24805.00" arrivalLane="27669864_0" arrivalPos="0.20" arrivalSpeed="2.87" duration="713.00" routeLength="3692.58" waitingTime="41.00" waitingCount="3" stopTime="45.00" timeLoss="177.16" rerouteNo="1" devices="tripinfo_flow_15_in.6 routing_flow_15_in.6 fcd_flow_15_in.6" vType="car" speedFactor="0.99" vaporized=""/>
    <tripinfo id="flow_10_in.12" depart="24121.00" departLane="-687674681_0" departPos="0.20" departSpeed="13.52" departDelay="0.76" arrival="24843.00" arrivalLane="-687674681_0" arrivalPos="0.20" arrivalSpeed="8.15" duration="722.00" routeLength="2852.51" waitingTime="78.00" waitingCount="7" stopTime="45.00" timeLoss="226.78" rerouteNo="1" devices="tripinfo_flow_10_in.12 routing_flow_10_in.12 fcd_flow_10_in.12" vType="car" speedFactor="0.97" vaporized=""/>
    <tripinfo id="flow_10_in.13" depart="24181.00" departLane="-687674681_0" departPos="0.20" departSpeed="0.00" departDelay="0.74" arrival="24846.00" arrivalLane="-687674681_0" arrivalPos="0.20" arrivalSpeed="9.64" duration="665.00" routeLength="2853.96" waitingTime="77.00" waitingCount="5" stopTime="45.00" timeLoss="248.85" rerouteNo="3" devices="tripinfo_flow_10_in.13 routing_flow_10_in.13 fcd_flow_10_in.13" vType="car" speedFactor="1.18" vaporized=""/>
    <tripinfo id="flow_5_in.12" depart="24258.00" departLane="-687674693#1_0" departPos="0.20" departSpeed="5.45" departDelay="0.85" arrival="24904.00" arrivalLane="-687674693#1_0" arrivalPos="0.20" arrivalSpeed="3.70" duration="646.00" routeLength="3023.04" waitingTime="46.00" waitingCount="5" stopTime="45.00" timeLoss="188.56" rerouteNo="1" devices="tripinfo_flow_5_in.12 routing_flow_5_in.12 fcd_flow_5_in.12" vType="car" speedFactor="1.09" vaporized=""/>
    <tripinfo id="flow_15_in.7" depart="24207.00" departLane="27669864_0" departPos="0.20" departSpeed="4.12" departDelay="0.60" arrival="24937.00" arrivalLane="27669864_0" arrivalPos="0.20" arrivalSpeed="2.99" duration="730.00" routeLength="3692.58" waitingTime="2.00" waitingCount="2" stopTime="45.00" timeLoss="143.45" rerouteNo="1" devices="tripinfo_flow_15_in.7 routing_flow_15_in.7 fcd_flow_15_in.7" vType="car" speedFactor="0.90" vaporized=""/>
    <tripinfo id="flow_0_in.6" depart="24219.00" departLane="-690833056#0_0" departPos="5.10" departSpeed="14.31" departDelay="0.20" arrival="24938.00" arrivalLane="-690833056#0_0" arrivalPos="10.76" arrivalSpeed="7.93" duration="719.00" routeLength="3544.68" waitingTime="63.00" waitingCount="2" stopTime="45.00" timeLoss="190.28" rerouteNo="1" devices="tripinfo_flow_0_in.6 routing_flow_0_in.6 fcd_flow_0_in.6" vType="car" speedFactor="1.03" vaporized=""/>
    <tripinfo id="flow_10_in.15" depart="24301.00" departLane="-687674681_0" departPos="0.20" departSpeed="14.42" departDelay="0.70" arrival="24941.00" arrivalLane="-687674681_0" arrivalPos="0.20" arrivalSpeed="11.53" duration="640.00" routeLength="2925.56" waitingTime="41.00" waitingCount="5" stopTime="45.00" timeLoss="168.13" rerouteNo="4" devices="tripinfo_flow_10_in.15 routing_flow_10_in.15 fcd_flow_10_in.15" vType="car" speedFactor="1.04" vaporized=""/>
    <tripinfo id="flow_10_in.14" depart="24241.00" departLane="-687674681_0" departPos="0.20" departSpeed="13.29" departDelay="0.72" arrival="24960.00" arrivalLane="-687674681_0" arrivalPos="0.20" arrivalSpeed="10.93" duration="719.00" routeLength="2852.51" waitingTime="54.00" waitingCount="7" stopTime="45.00" timeLoss="214.49" rerouteNo="1" devices="tripinfo_flow_10_in.14 routing_flow_10_in.14 fcd_flow_10_in.14" vType="car" speedFactor="0.96" vaporized=""/>
    <tripinfo id="flow_5_in.13" depart="24329.00" departLane="-687674693#1_0" departPos="0.20" departSpeed="5.45" departDelay="0.42" arrival="24966.00" arrivalLane="-687674693#1_0" arrivalPos="0.20" arrivalSpeed="2.80" duration="637.00" routeLength="3023.04" waitingTime="2.00" waitingCount="2" stopTime="45.00" timeLoss="179.29" rerouteNo="1" devices="tripinfo_flow_5_in.13 routing_flow_5_in.13 fcd_flow_5_in.13" vType="car" speedFactor="1.09" vaporized=""/>
    <tripinfo id="flow_15_in.8" depart="24322.00" departLane="27669864_0" departPos="0.20" departSpeed="4.12" departDelay="0.40" arrival="25007.00" arrivalLane="27669864_0" arrivalPos="0.20" arrivalSpeed="3.44" duration="685.00" routeLength="3692.58" waitingTime="3.00" waitingCount="3" stopTime="45.00" timeLoss="169.65" rerouteNo="1" devices="tripinfo_flow_15_in.8 routing_flow_15_in.8 fcd_flow_15_in.8" vType="car" speedFactor="1.04" vaporized=""/>
    <tripinfo id="flow_0_in.7" depart="24356.00" departLane="-690833056#0_0" departPos="5.10" departSpeed="13.85" departDelay="0.73" arrival="25046.00" arrivalLane="-690833056#0_0" arrivalPos="10.76" arrivalSpeed="8.54" duration="690.00" routeLength="3590.55" waitingTime="6.00" waitingCount="2" stopTime="45.00" timeLoss="139.33" rerouteNo="1" devices="tripinfo_flow_0_in.7 routing_flow_0_in.7 fcd_flow_0_in.7" vType="car" speedFactor="1.00" vaporized=""/>
    <tripinfo id="flow_5_in.14" depart="24401.00" departLane="-687674693#1_0" departPos="0.20" departSpeed="5.45" departDelay="0.99" arrival="25104.00" arrivalLane="-687674693#1_0" arrivalPos="0.20" arrivalSpeed="2.27" duration="703.00" routeLength="3023.04" waitingTime="2.00" waitingCount="2" stopTime="45.00" timeLoss="150.70" rerouteNo="1" devices="tripinfo_flow_5_in.14 routing_flow_5_in.14 fcd_flow_5_in.14" vType="car" speedFactor="0.88" vaporized=""/>
    <tripinfo id="flow_10_in.16" depart="24361.00" departLane="-687674681_0" departPos="0.20" departSpeed="0.00" departDelay="0.68" arrival="25122.00" arrivalLane="-687674681_0" arrivalPos="0.20" arrivalSpeed="9.66" duration="761.00" routeLength="2986.48" waitingTime="45.00" waitingCount="7" stopTime="45.00" timeLoss="219.98" rerouteNo="2" devices="tripinfo_flow_10_in.16 routing_flow_10_in.16 fcd_flow_10_in.16" vType="car" speedFactor="0.90" vaporized=""/>
    <tripinfo id="flow_10_in.17" depart="24421.00" departLane="-687674681_0" departPos="0.20" departSpeed="11.81" departDelay="0.66" arrival="25142.00" arrivalLane="-687674681_0" arrivalPos="0.20" arrivalSpeed="11.03" duration="721.00" routeLength="2925.56" waitingTime="4.00" waitingCount="4" stopTime="45.00" timeLoss="153.93" rerouteNo="1" devices="tripinfo_flow_10_in.17 routing_flow_10_in.17 fcd_flow_10_in.17" vType="car" speedFactor="0.85" vaporized=""/>
    <tripinfo id="flow_5_in.15" depart="24472.00" departLane="-687674693#1_0" departPos="0.20" departSpeed="5.45" departDelay="0.57" arrival="25164.00" arrivalLane="-687674693#1_0" arrivalPos="0.20" arrivalSpeed="3.31" duration="692.00" routeLength="3023.04" waitingTime="3.00" waitingCount="3" stopTime="45.00" timeLoss="261.03" rerouteNo="1" devices="tripinfo_flow_5_in.15 routing_flow_5_in.15 fcd_flow_5_in.15" vType="car" speedFactor="1.17" vaporized=""/>
    <tripinfo id="flow_0_in.8" depart="24492.00" departLane="-690833056#0_0" departPos="5.10" departSpeed="15.22" departDelay="0.26" arrival="25178.00" arrivalLane="-690833056#0_0" arrivalPos="10.76" arrivalSpeed="8.23" duration="686.00" routeLength="3590.55" waitingTime="23.00" waitingCount="3" stopTime="45.00" timeLoss="180.83" rerouteNo="1" devices="tripinfo_flow_0_in.8 routing_flow_0_in.8 fcd_flow_0_in.8" vType="car" speedFactor="1.10" vaporized=""/>
    <tripinfo id="flow_5_in.16" depart="24543.00" departLane="-687674693#1_0" departPos="0.20" departSpeed="5.45" departDelay="0.14" arrival="25184.00" arrivalLane="-687674693#1_0" arrivalPos="0.20" arrivalSpeed="2.38" duration="641.00" routeLength="3023.04" waitingTime="3.00" waitingCount="3" stopTime="45.00" timeLoss="148.10" rerouteNo="1" devices="tripinfo_flow_5_in.16 routing_flow_5_in.16 fcd_flow_5_in.16" vType="car" speedFactor="1.00" vaporized=""/>
    <tripinfo id="flow_15_in.9" depart="24437.00" departLane="27669864_0" departPos="0.20" departSpeed="4.12" departDelay="0.20" arrival="25198.00" arrivalLane="27669864_0" arrivalPos="0.20" arrivalSpeed="2.66" duration="761.00" routeLength="3692.58" waitingTime="2.00" waitingCount="2" stopTime="45.00" timeLoss="147.78" rerouteNo="1" devices="tripinfo_flow_15_in.9 routing_flow_15_in.9 fcd_flow_15_in.9" vType="car" speedFactor="0.85" vaporized=""/>
    <tripinfo id="flow_10_in.18" depart="24481.00" departLane="-687674681_0" departPos="0.20" departSpeed="14.12" departDelay="0.64" arrival="25204.00" arrivalLane="-687674681_0" arrivalPos="0.20" arrivalSpeed="9.50" duration="723.00" routeLength="2925.56" waitingTime="98.00" waitingCount="7" stopTime="45.00" timeLoss="240.19" rerouteNo="2" devices="tripinfo_flow_10_in.18 routing_flow_10_in.18 fcd_flow_10_in.18" vType="car" speedFactor="1.02" vaporized=""/>
    <tripinfo id="flow_10_in.19" depart="24541.00" departLane="-687674681_0" departPos="0.20" departSpeed="0.00" departDelay="0.62" arrival="25236.00" arrivalLane="-687674681_0" arrivalPos="0.20" arrivalSpeed="8.81" duration="695.00" routeLength="2850.76" waitingTime="31.00" waitingCount="4" stopTime="45.00" timeLoss="213.43" rerouteNo="4" devices="tripinfo_flow_10_in.19 routing_flow_10_in.19 fcd_flow_10_in.19" vType="car" speedFactor="1.00" vaporized=""/>
    <tripinfo id="flow_10_in.20" depart="24601.00" departLane="-687674681_0" departPos="0.20" departSpeed="15.87" departDelay="0.60" arrival="25240.00" arrivalLane="-687674681_0" arrivalPos="0.20" arrivalSpeed="10.43" duration="639.00" routeLength="2844.67" waitingTime="3.00" waitingCount="3" stopTime="45.00" timeLoss="211.74" rerouteNo="3" devices="tripinfo_flow_10_in.20 routing_flow_10_in.20 fcd_flow_10_in.20" vType="car" speedFactor="1.14" vaporized=""/>
    <tripinfo id="flow_5_in.17" depart="24617.00" departLane="-687674693#1_0" departPos="0.20" departSpeed="5.45" departDelay="2.71" arrival="25271.00" arrivalLane="-687674693#1_0" arrivalPos="0.20" arrivalSpeed="3.29" duration="654.00" routeLength="3023.04" waitingTime="44.00" waitingCount="3" stopTime="45.00" timeLoss="171.05" rerouteNo="1" devices="tripinfo_flow_5_in.17 routing_flow_5_in.17 fcd_flow_5_in.17" vType="car" speedFactor="1.02" vaporized=""/>
    <tripinfo id="flow_15_in.10" depart="24552.00" departLane="27669864_0" departPos="0.20" departSpeed="4.12" departDelay="0.00" arrival="25281.00" arrivalLane="27669864_0" arrivalPos="0.20" arrivalSpeed="2.19" duration="729.00" routeLength="3692.58" waitingTime="2.00" waitingCount="2" stopTime="45.00" timeLoss="142.03" rerouteNo="1" devices="tripinfo_flow_15_in.10 routing_flow_15_in.10 fcd_flow_15_in.10" vType="car" speedFactor="0.90" vaporized=""/>
    <tripinfo id="flow_10_in.21" depart="24661.00" departLane="-687674681_0" departPos="0.20" departSpeed="15.04" departDelay="0.58" arrival="25321.00" arrivalLane="-687674681_0" arrivalPos="0.20" arrivalSpeed="11.57" duration="660.00" routeLength="2844.67" waitingTime="21.00" waitingCount="4" stopTime="45.00" timeLoss="208.98" rerouteNo="1" devices="tripinfo_flow_10_in.21 routing_flow_10_in.21 fcd_flow_10_in.21" vType="car" speedFactor="1.08" vaporized=""/>
    <tripinfo id="flow_5_in.18" depart="24686.00" departLane="-687674693#1_0" departPos="0.20" departSpeed="5.45" departDelay="0.28" arrival="25323.00" arrivalLane="-687674693#1_0" arrivalPos="0.20" arrivalSpeed="3.02" duration="637.00" routeLength="3023.04" waitingTime="3.00" waitingCount="3" stopTime="45.00" timeLoss="154.03" rerouteNo="1" devices="tripinfo_flow_5_in.18 routing_flow_5_in.18 fcd_flow_5_in.18" vType="car" speedFactor="1.02" vaporized=""/>
    <tripinfo id="flow_0_in.9" depart="24629.00" departLane="-690833056#0_0" departPos="5.10" departSpeed="13.47" departDelay="0.80" arrival="25328.00" arrivalLane="-690833056#0_0" arrivalPos="10.76" arrivalSpeed="7.96" duration="699.00" routeLength="3544.68" waitingTime="3.00" waitingCount="2" stopTime="45.00" timeLoss="140.08" rerouteNo="1" devices="tripinfo_flow_0_in.9 routing_flow_0_in.9 fcd_flow_0_in.9" vType="car" speedFactor="0.97" vaporized=""/>