<?xml version="1.0" encoding="UTF-8"?>

<!-- generated on 2026-04-01T17:02:54.091694+02:00 by Eclipse SUMO sumo 1.26.0
<sumoConfiguration xmlns:xsi="http://www.w3.org/2001/XMLSchema-instance" xsi:noNamespaceSchemaLocation="http://sumo.dlr.de/xsd/sumoConfiguration.xsd">

    <input>
        <net-file value="C:\Users\neill\Github\tokai-sim\sim\sumo\bergvliet.net.xml"/>
        <route-files value="C:\Users\neill\Github\tokai-sim\sim\sumo\demand-H.rou.xml"/>
        <additional-files value="C:\Users\neill\Github\tokai-sim\sim\sumo\speed-humps.add.xml"/>
    </input>

    <output>
        <fcd-output value="C:\Users\neill\Github\tokai-sim\sim\sumo\fcd-H.xml"/>
        <tripinfo-output value="C:\Users\neill\Github\tokai-sim\sim\sumo\tripinfo-H.xml"/>
    </output>

    <time>
        <begin value="23400"/>
        <end value="30600"/>
        <step-length value="1"/>
    </time>

    <processing>
        <ignore-route-errors value="true"/>
    </processing>

    <routing>
        <routing-algorithm value="astar"/>
        <device.rerouting.probability value="1.0"/>
        <device.rerouting.period value="60"/>
        <device.rerouting.pre-period value="0"/>
    </routing>

    <report>
        <no-warnings value="true"/>
        <no-step-log value="true"/>
    </report>

    <fcd_device>
        <device.fcd.period value="60"/>
    </fcd_device>

</sumoConfiguration>
-->

<tripinfos xmlns:xsi="http://www.w3.org/2001/XMLSchema-instance" xsi:noNamespaceSchemaLocation="http://sumo.dlr.de/xsd/tripinfo_file.xsd">
    <tripinfo id="flow_5_in.0" depart="23400.00" departLane="-687674693#1_0" departPos="0.20" departSpeed="5.45" departDelay="0.00" arrival="24060.00" arrivalLane="-687674693#1_0" arrivalPos="0.20" arrivalSpeed="3.90" duration="660.00" routeLength="3023.04" waitingTime="2.00" waitingCount="2" stopTime="45.00" timeLoss="140.06" rerouteNo="1" devices="tripinfo_flow_5_in.0 routing_flow_5_in.0 fcd_flow_5_in.0" vType="car" speedFactor="0.94" vaporized=""/>
    <tripinfo id="flow_10_in.0" depart="23400.00" departLane="-687674681_0" departPos="0.20" departSpeed="14.03" departDelay="0.00" arrival="24067.00" arrivalLane="-687674681_0" arrivalPos="0.20" arrivalSpeed="10.11" duration="667.00" routeLength="2925.56" waitingTime="5.00" waitingCount="5" stopTime="45.00" timeLoss="181.42" rerouteNo="1" devices="tripinfo_flow_10_in.0 routing_flow_10_in.0 fcd_flow_10_in.0" vType="car" speedFactor="1.01" vaporized=""/>
    <tripinfo id="flow_0_in.0" depart="23400.00" departLane="-690833056#0_0" departPos="5.10" departSpeed="14.72" departDelay="0.00" arrival="24090.00" arrivalLane="-690833056#0_0" arrivalPos="10.76" arrivalSpeed="8.64" duration="690.00" routeLength="3544.68" waitingTime="10.00" waitingCount="1" stopTime="45.00" timeLoss="174.73" rerouteNo="1" devices="tripinfo_flow_0_in.0 routing_flow_0_in.0 fcd_flow_0_in.0" vType="car" speedFactor="1.06" vaporized=""/>
    <tripinfo id="flow_15_in.0" depart="23400.00" departLane="27669864_0" departPos="0.20" departSpeed="4.12" departDelay="0.00" arrival="24093.00" arrivalLane="27669864_0" arrivalPos="0.20" arrivalSpeed="2.75" duration="693.00" routeLength="3692.58" waitingTime="4.00" waitingCount="3" stopTime="45.00" timeLoss="191.88" rerouteNo="1" devices="tripinfo_flow_15_in.0 routing_flow_15_in.0 fcd_flow_15_in.0" vType="car" speedFactor="1.08" vaporized=""/>
    <tripinfo id="flow_10_in.1" depart="23462.00" departLane="-687674681_0" departPos="0.20" departSpeed="0.00" departDelay="0.78" arrival="24131.00" arrivalLane="-687674681_0" arrivalPos="0.20" arrivalSpeed="9.61" duration="669.00" routeLength="2852.51" waitingTime="53.00" waitingCount="6" stopTime="45.00" timeLoss="199.55" rerouteNo="1" devices="tripinfo_flow_10_in.1 routing_flow_10_in.1 fcd_flow_10_in.1" vType="car" speedFactor="1.03" vaporized=""/>
    <tripinfo id="flow_5_in.1" depart="23508.00" departLane="-687674693#1_0" departPos="0.20" departSpeed="5.45" departDelay="0.86" arrival="24191.00" arrivalLane="-687674693#1_0" arrivalPos="0.20" arrivalSpeed="2.02" duration="683.00" routeLength="3023.04" waitingTime="2.00" waitingCount="2" stopTime="45.00" timeLoss="137.95" rerouteNo="1" devices="tripinfo_flow_5_in.1 routing_flow_5_in.1 fcd_flow_5_in.1" vType="car" speedFactor="0.89" vaporized=""/>
    <tripinfo id="flow_10_in.2" depart="23523.00" departLane="-687674681_0" departPos="0.20" departSpeed="13.03" departDelay="0.55" arrival="24221.00" arrivalLane="-687674681_0" arrivalPos="0.20" arrivalSpeed="10.59" duration="698.00" routeLength="2852.51" waitingTime="24.00" waitingCount="5" stopTime="45.00" timeLoss="187.32" rerouteNo="1" devices="tripinfo_flow_10_in.2 routing_flow_10_in.2 fcd_flow_10_in.2" vType="car" speedFactor="0.94" vaporized=""/>
    <tripinfo id="flow_15_in.1" depart="23503.00" departLane="27669864_0" departPos="0.20" departSpeed="4.12" departDelay="0.96" arrival="24225.00" arrivalLane="27669864_0" arrivalPos="0.20" arrivalSpeed="5.19" duration="722.00" routeLength="3692.58" waitingTime="3.00" waitingCount="3" stopTime="45.00" timeLoss="206.92" rerouteNo="1" devices="tripinfo_flow_15_in.1 routing_flow_15_in.1 fcd_flow_15_in.1" vType="car" speedFactor="1.05" vaporized=""/>
    <tripinfo id="flow_10_in.3" depart="23584.00" departLane="-687674681_0" departPos="0.20" departSpeed="15.15" departDelay="0.33" arrival="24230.00" arrivalLane="-687674681_0" arrivalPos="0.20" arrivalSpeed="10.46" duration="646.00" routeLength="2925.56" waitingTime="4.00" waitingCount="4" stopTime="45.00" timeLoss="193.63" rerouteNo="1" devices="tripinfo_flow_10_in.3 routing_flow_10_in.3 fcd_flow_10_in.3" vType="car" speedFactor="1.09" vaporized=""/>
    <tripinfo id="flow_5_in.2" depart="23615.00" departLane="-687674693#1_0" departPos="0.20" departSpeed="5.45" departDelay="0.71" arrival="24274.00" arrivalLane="-687674693#1_0" arrivalPos="0.20" arrivalSpeed="3.01" duration="659.00" routeLength="3023.04" waitingTime="44.00" waitingCount="4" stopTime="45.00" timeLoss="186.26" rerouteNo="1" devices="tripinfo_flow_5_in.2 routing_flow_5_in.2 fcd_flow_5_in.2" vType="car" speedFactor="1.05" vaporized=""/>
    <tripinfo id="flow_0_in.1" depart="23490.00" departLane="-690833056#0_0" departPos="5.10" departSpeed="11.54" departDelay="0.71" arrival="24279.00" arrivalLane="-690833056#0_0" arrivalPos="10.76" arrivalSpeed="7.85" duration="789.00" routeLength="3544.68" waitingTime="1.00" waitingCount="1" stopTime="45.00" timeLoss="145.45" rerouteNo="1" devices="tripinfo_flow_0_in.1 routing_flow_0_in.1 fcd_flow_0_in.1" vType="car" speedFactor="0.83" vaporized=""/>
    <tripinfo id="flow_15_in.2" depart="23605.00" departLane="27669864_0" departPos="0.20" departSpeed="4.12" departDelay="0.92" arrival="24307.00" arrivalLane="27669864_0" arrivalPos="0.20" arrivalSpeed="2.54" duration="702.00" routeLength="3692.58" waitingTime="29.00" waitingCount="4" stopTime="45.00" timeLoss="178.37" rerouteNo="1" devices="tripinfo_flow_15_in.2 routing_flow_15_in.2 fcd_flow_15_in.2" vType="car" speedFactor="1.03" vaporized=""/>
    <tripinfo id="flow_0_in.2" depart="23579.00" departLane="-690833056#0_0" departPos="5.10" departSpeed="11.90" departDelay="0.43" arrival="24392.00" arrivalLane="-690833056#0_0" arrivalPos="10.76" arrivalSpeed="8.30" duration="813.00" routeLength="3544.68" waitingTime="29.00" waitingCount="2" stopTime="45.00" timeLoss="185.27" rerouteNo="1" devices="tripinfo_flow_0_in.2 routing_flow_0_in.2 fcd_flow_0_in.2" vType="car" speedFactor="0.86" vaporized=""/>
    <tripinfo id="flow_10_in.4" depart="23645.00" departLane="-687674681_0" departPos="0.20" departSpeed="0.00" departDelay="0.10" arrival="24394.00" arrivalLane="-687674681_0" arrivalPos="0.20" arrivalSpeed="7.65" duration="749.00" routeLength="2925.56" waitingTime="73.00" waitingCount="7" stopTime="45.00" timeLoss="309.19" rerouteNo="1" devices="tripinfo_flow_10_in.4 routing_flow_10_in.4 fcd_flow_10_in.4" vType="car" speedFactor="1.12" vaporized=""/>
    <tripinfo id="flow_0_in.3" depart="23668.00" departLane="-690833056#0_0" departPos="5.10" departSpeed="13.77" departDelay="0.14" arrival="24398.00" arrivalLane="-690833056#0_0" arrivalPos="10.76" arrivalSpeed="9.22" duration="730.00" routeLength="3544.68" waitingTime="1.00" waitingCount="1" stopTime="45.00" timeLoss="183.36" rerouteNo="1" devices="tripinfo_flow_0_in.3 routing_flow_0_in.3 fcd_flow_0_in.3" vType="car" speedFactor="0.99" vaporized=""/>
    <tripinfo id="flow_10_in.5" depart="23707.00" departLane="-687674681_0" departPos="0.20" departSpeed="12.87" departDelay="0.88" arrival="24402.00" arrivalLane="-687674681_0" arrivalPos="0.20" arrivalSpeed="10.67" duration="695.00" routeLength="2852.51" waitingTime="24.00" waitingCount="5" stopTime="45.00" timeLoss="178.08" rerouteNo="1" devices="tripinfo_flow_10_in.5 routing_flow_10_in.5 fcd_flow_10_in.5" vType="car" speedFactor="0.93" vaporized=""/>
    <tripinfo id="flow_5_in.3" depart="23722.00" departLane="-687674693#1_0" departPos="0.20" departSpeed="5.45" departDelay="0.57" arrival="24478.00" arrivalLane="-687674693#1_0" arrivalPos="0.20" arrivalSpeed="2.55" duration="756.00" routeLength="3023.04" waitingTime="49.00" waitingCount="4" stopTime="45.00" timeLoss="237.00" rerouteNo="1" devices="tripinfo_flow_5_in.3 routing_flow_5_in.3 fcd_flow_5_in.3" vType="car" speedFactor="0.94" vaporized=""/>
    <tripinfo id="flow_10_in.6" depart="23768.00" departLane="-687674681_0" departPos="0.20" departSpeed="16.09" departDelay="0.66" arrival="24491.00" arrivalLane="-687674681_0" arrivalPos="0.20" arrivalSpeed="10.79" duration="723.00" routeLength="2925.56" waitingTime="45.00" waitingCount="7" stopTime="45.00" timeLoss="289.91" rerouteNo="1" devices="tripinfo_flow_10_in.6 routing_flow_10_in.6 fcd_flow_10_in.6" vType="car" speedFactor="1.16" vaporized=""/>
    <tripinfo id="flow_5_in.4" depart="23829.00" departLane="-687674693#1_0" departPos="0.20" departSpeed="5.45" departDelay="0.43" arrival="24503.00" arrivalLane="-687674693#1_0" arrivalPos="0.20" arrivalSpeed="3.54" duration="674.00" routeLength="3023.04" waitingTime="3.00" waitingCount="3" stopTime="45.00" timeLoss="188.55" rerouteNo="1" devices="tripinfo_flow_5_in.4 routing_flow_5_in.4 fcd_flow_5_in.4" vType="car" speedFactor="1.01" vaporized=""/>
    <tripinfo id="flow_15_in.3" depart="23707.00" departLane="27669864_0" departPos="0.20" departSpeed="4.12" departDelay="0.88" arrival="24508.00" arrivalLane="27669864_0" arrivalPos="0.20" arrivalSpeed="1.91" duration="801.00" routeLength="3692.58" waitingTime="50.00" waitingCount="3" stopTime="45.00" timeLoss="199.47" rerouteNo="1" devices="tripinfo_flow_15_in.3 routing_flow_15_in.3 fcd_flow_15_in.3" vType="car" speedFactor="0.88" vaporized=""/>
    <tripinfo id="flow_0_in.4" depart="23758.00" departLane="-690833056#0_0" departPos="5.10" departSpeed="13.00" departDelay="0.86" arrival="24514.00" arrivalLane="-690833056#0_0" arrivalPos="10.76" arrivalSpeed="9.14" duration="756.00" routeLength="3590.55" waitingTime="2.00" waitingCount="2" stopTime="45.00" timeLoss="172.41" rerouteNo="1" devices="tripinfo_flow_0_in.4 routing_flow_0_in.4 fcd_flow_0_in.4" vType="car" speedFactor="0.94" vaporized=""/>
    <tripinfo id="flow_15_in.4" depart="23809.00" departLane="27669864_0" departPos="0.20" departSpeed="4.12" departDelay="0.84" arrival="24526.00" arrivalLane="27669864_0" arrivalPos="0.20" arrivalSpeed="3.30" duration="717.00" routeLength="3692.58" waitingTime="3.00" waitingCount="3" stopTime="45.00" timeLoss="191.97" rerouteNo="1" devices="tripinfo_flow_15_in.4 routing_flow_15_in.4 fcd_flow_15_in.4" vType="car" speedFactor="1.02" vaporized=""/>
    <tripinfo id="flow_10_in.7" depart="23829.00" departLane="-687674681_0" departPos="0.20" departSpeed="0.00" departDelay="0.43" arrival="24580.00" arrivalLane="-687674681_0" arrivalPos="0.20" arrivalSpeed="9.74" duration="751.00" routeLength="2925.56" waitingTime="104.00" waitingCount="7" stopTime="45.00" timeLoss="249.29" rerouteNo="1" devices="tripinfo_flow_10_in.7 routing_flow_10_in.7 fcd_flow_10_in.7" vType="car" speedFactor="0.97" vaporized=""/>
    <tripinfo id="flow_0_in.5" depart="23847.00" departLane="-690833056#0_0" departPos="5.10" departSpeed="12.36" departDelay="0.57" arrival="24612.00" arrivalLane="-690833056#0_0" arrivalPos="10.76" arrivalSpeed="7.88" duration="765.00" routeLength="3544.68" waitingTime="12.00" waitingCount="2" stopTime="45.00" timeLoss="160.38" rerouteNo="1" devices="tripinfo_flow_0_in.5 routing_flow_0_in.5 fcd_flow_0_in.5" vType="car" speedFactor="0.89" vaporized=""/>
    <tripinfo id="flow_5_in.5" depart="23936.00" departLane="-687674693#1_0" departPos="0.20" departSpeed="5.45" departDelay="0.29" arrival="24634.00" arrivalLane="-687674693#1_0" arrivalPos="0.20" arrivalSpeed="3.36" duration="698.00" routeLength="3023.04" waitingTime="2.00" waitingCount="2" stopTime="45.00" timeLoss="183.99" rerouteNo="1" devices="tripinfo_flow_5_in.5 routing_flow_5_in.5 fcd_flow_5_in.5" vType="car" speedFactor="0.95" vaporized=""/>
    <tripinfo id="flow_15_in.5" depart="23911.00" departLane="27669864_0" departPos="0.20" departSpeed="4.12" departDelay="0.80" arrival="24664.00" arrivalLane="27669864_0" arrivalPos="0.20" arrivalSpeed="2.49" duration="753.00" routeLength="3692.58" waitingTime="2.00" waitingCount="2" stopTime="45.00" timeLoss="152.42" rerouteNo="1" devices="tripinfo_flow_15_in.5 routing_flow_15_in.5 fcd_flow_15_in.5" vType="car" speedFactor="0.87" vaporized=""/>
    <tripinfo id="flow_10_in.8" depart="23890.00" departLane="-687674681_0" departPos="0.20" departSpeed="0.00" departDelay="0.21" arrival="24675.00" arrivalLane="-687674681_0" arrivalPos="0.20" arrivalSpeed="10.42" duration="785.00" routeLength="2852.51" waitingTime="53.00" waitingCount="5" stopTime="45.00" timeLoss="208.41" rerouteNo="1" devices="tripinfo_flow_10_in.8 routing_flow_10_in.8 fcd_flow_10_in.8" vType="car" speedFactor="0.83" vaporized=""/>
    <tripinfo id="flow_10_in.9" depart="23952.00" departLane="-687674681_0" departPos="0.20" departSpeed="15.72" departDelay="0.98" arrival="24679.00" arrivalLane="-687674681_0" arrivalPos="0.20" arrivalSpeed="10.94" duration="727.00" routeLength="2852.51" waitingTime="4.00" waitingCount="4" stopTime="45.00" timeLoss="290.78" rerouteNo="1" devices="tripinfo_flow_10_in.9 routing_flow_10_in.9 fcd_flow_10_in.9" vType="car" speedFactor="1.13" vaporized=""/>
    <tripinfo id="flow_5_in.6" depart="24043.00" departLane="-687674693#1_0" departPos="0.20" departSpeed="5.45" departDelay="0.14" arrival="24709.00" arrivalLane="-687674693#1_0" arrivalPos="0.20" arrivalSpeed="3.50" duration="666.00" routeLength="3023.04" waitingTime="2.00" waitingCount="2" stopTime="45.00" timeLoss="177.20" rerouteNo="1" devices="tripinfo_flow_5_in.6 routing_flow_5_in.6 fcd_flow_5_in.6" vType="car" speedFactor="1.01" vaporized=""/>
    <tripinfo id="flow_15_in.6" depart="24013.00" departLane="27669864_0" departPos="0.20" departSpeed="4.12" departDelay="0.75" arrival="24721.00" arrivalLane="27669864_0" arrivalPos="0.20" arrivalSpeed="4.22" duration="708.00" routeLength="3692.58" waitingTime="27.00" waitingCount="3" stopTime="45.00" timeLoss="239.38" rerouteNo="1" devices="tripinfo_flow_15_in.6 routing_flow_15_in.6 fcd_flow_15_in.6" vType="car" speedFactor="1.18" vaporized=""/>
    <tripinfo id="flow_0_in.6" depart="23936.00" departLane="-690833056#0_0" departPos="5.10" departSpeed="12.74" departDelay="0.28" arrival="24723.00" arrivalLane="-690833056#0_0" arrivalPos="10.76" arrivalSpeed="9.32" duration="787.00" routeLength="3544.68" waitingTime="50.00" waitingCount="2" stopTime="45.00" timeLoss="195.98" rerouteNo="1" devices="tripinfo_flow_0_in.6 routing_flow_0_in.6 fcd_flow_0_in.6" vType="car" speedFactor="0.92" vaporized=""/>
    <tripinfo id="flow_0_in.7" depart="24026.00" departLane="-690833056#0_0" departPos="5.10" departSpeed="16.03" departDelay="1.00" arrival="24726.00" arrivalLane="-690833056#0_0" arrivalPos="10.76" arrivalSpeed="9.51" duration="700.00" routeLength="3544.68" waitingTime="20.00" waitingCount="3" stopTime="45.00" timeLoss="222.97" rerouteNo="1" devices="tripinfo_flow_0_in.7 routing_flow_0_in.7 fcd_flow_0_in.7" vType="car" speedFactor="1.15" vaporized=""/>
    <tripinfo id="flow_10_in.11" depart="24074.00" departLane="-687674681_0" departPos="0.20" departSpeed="0.00" departDelay="0.54" arrival="24760.00" arrivalLane="-687674681_0" arrivalPos="0.20" arrivalSpeed="10.30" duration="686.00" routeLength="2917.72" waitingTime="76.00" waitingCount="5" stopTime="45.00" timeLoss="263.30" rerouteNo="1" devices="tripinfo_flow_10_in.11 routing_flow_10_in.11 fcd_flow_10_in.11" vType="car" speedFactor="1.17" vaporized=""/>
    <tripinfo id="flow_10_in.10" depart="24013.00" departLane="-687674681_0" departPos="0.20" departSpeed="0.00" departDelay="0.76" arrival="24765.00" arrivalLane="-687674681_0" arrivalPos="0.20" arrivalSpeed="11.94" duration="752.00" routeLength="2852.51" waitingTime="56.00" waitingCount="7" stopTime="45.00" timeLoss="234.76" rerouteNo="1" devices="tripinfo_flow_10_in.10 routing_flow_10_in.10 fcd_flow_10_in.10" vType="car" speedFactor="0.93" vaporized=""/>
    <tripinfo id="flow_5_in.7" depart="24151.00" departLane="-687674693#1_0" departPos="0.20" departSpeed="5.45" departDelay="1.00" arrival="24812.00" arrivalLane="-687674693#1_0" arrivalPos="0.20" arrivalSpeed="3.87" duration="661.00" routeLength="3023.04" waitingTime="49.00" waitingCount="6" stopTime="45.00" timeLoss="233.08" rerouteNo="1" devices="tripinfo_flow_5_in.7 routing_flow_5_in.7 fcd_flow_5_in.7" vType="car" speedFactor="1.18" vaporized=""/>
    <tripinfo id="flow_15_in.7" depart="24115.00" departLane="27669864_0" departPos="0.20" departSpeed="4.12" departDelay="0.71" arrival="24834.00" arrivalLane="27669864_0" arrivalPos="0.20" arrivalSpeed="2.91" duration="719.00" routeLength="3692.58" waitingTime="56.00" waitingCount="4" stopTime="45.00" timeLoss="193.00" rerouteNo="1" devices="tripinfo_flow_15_in.7 routing_flow_15_in.7 fcd_flow_15_in.7" vType="car" speedFactor="1.02" vaporized=""/>
    <tripinfo id="flow_0_in.8" depart="24115.00" departLane="-690833056#0_0" departPos="5.10" departSpeed="13.82" departDelay="0.71" arrival="24852.00" arrivalLane="-690833056#0_0" arrivalPos="10.76" arrivalSpeed="8.56" duration="737.00" routeLength="3590.55" waitingTime="31.00" waitingCount="2" stopTime="45.00" timeLoss="182.36" rerouteNo="1" devices="tripinfo_flow_0_in.8 routing_flow_0_in.8 fcd_flow_0_in.8" vType="car" speedFactor="0.99" vaporized=""/>
    <tripinfo id="flow_10_in.12" depart="24135.00" departLane="-687674681_0" departPos="0.20" departSpeed="13.52" departDelay="0.31" arrival="24852.00" arrivalLane="-687674681_0" arrivalPos="0.20" arrivalSpeed="10.47" duration="717.00" routeLength="2925.56" waitingTime="61.00" waitingCount="7" stopTime="45.00" timeLoss="211.03" rerouteNo="1" devices="tripinfo_flow_10_in.12 routing_flow_10_in.12 fcd_flow_10_in.12" vType="car" speedFactor="0.97" vaporized=""/>
    <tripinfo id="flow_10_in.13" depart="24196.00" departLane="-687674681_0" departPos="0.20" departSpeed="0.00" departDelay="0.09" arrival="24855.00" arrivalLane="-687674681_0" arrivalPos="0.20" arrivalSpeed="10.34" duration="659.00" routeLength="2917.72" waitingTime="38.00" waitingCount="5" stopTime="45.00" timeLoss="211.08" rerouteNo="1" devices="tripinfo_flow_10_in.13 routing_flow_10_in.13 fcd_flow_10_in.13" vType="car" speedFactor="1.10" vaporized=""/>
    <tripinfo id="flow_15_in.8" depart="24217.00" departLane="27669864_0" departPos="0.20" departSpeed="4.12" departDelay="0.67" arrival="24877.00" arrivalLane="27669864_0" arrivalPos="0.20" arrivalSpeed="3.32" duration="660.00" routeLength="3692.58" waitingTime="2.00" waitingCount="2" stopTime="45.00" timeLoss="139.56" rerouteNo="1" devices="tripinfo_flow_15_in.8 routing_flow_15_in.8 fcd_flow_15_in.8" vType="car" speedFactor="1.03" vaporized=""/>
    <tripinfo id="flow_10_in.14" depart="24258.00" departLane="-687674681_0" departPos="0.20" departSpeed="0.00" departDelay="0.86" arrival="24953.00" arrivalLane="-687674681_0" arrivalPos="0.20" arrivalSpeed="9.59" duration="695.00" routeLength="2853.96" waitingTime="45.00" waitingCount="5" stopTime="45.00" timeLoss="248.32" rerouteNo="2" devices="tripinfo_flow_10_in.14 routing_flow_10_in.14 fcd_flow_10_in.14" vType="car" speedFactor="1.09" vaporized=""/>
    <tripinfo id="flow_5_in.8" depart="24258.00" departLane="-687674693#1_0" departPos="0.20" departSpeed="5.45" departDelay="0.86" arrival="24964.00" arrivalLane="-687674693#1_0" arrivalPos="0.20" arrivalSpeed="3.35" duration="706.00" routeLength="3023.04" waitingTime="32.00" waitingCount="3" stopTime="45.00" timeLoss="195.32" rerouteNo="1" devices="tripinfo_flow_5_in.8 routing_flow_5_in.8 fcd_flow_5_in.8" vType="car" speedFactor="0.96" vaporized=""/>
    <tripinfo id="flow_0_in.9" depart="24204.00" departLane="-690833056#0_0" departPos="5.10" departSpeed="12.51" departDelay="0.43" arrival="24985.00" arrivalLane="-690833056#0_0" arrivalPos="10.76" arrivalSpeed="9.86" duration="781.00" routeLength="3590.55" waitingTime="35.00" waitingCount="2" stopTime="45.00" timeLoss="176.68" rerouteNo="1" devices="tripinfo_flow_0_in.9 routing_flow_0_in.9 fcd_flow_0_in.9" vType="car" speedFactor="0.90" vaporized=""/>
    <tripinfo id="flow_0_in.10" depart="24293.00" departLane="-690833056#0_0" departPos="5.10" departSpeed="14.42" departDelay="0.14" arrival="24991.00" arrivalLane="-690833056#0_0" arrivalPos="10.76" arrivalSpeed="8.73" duration="698.00" routeLength="3544.68" waitingTime="0.00" waitingCount="0" stopTime="45.00" timeLoss="172.51" rerouteNo="1" devices="tripinfo_flow_0_in.10 routing_flow_0_in.10 fcd_flow_0_in.10" vType="car" speedFactor="1.04" vaporized=""/>
    <tripinfo id="flow_15_in.9" depart="24319.00" departLane="27669864_0" departPos="0.20" departSpeed="4.12" departDelay="0.63" arrival="25009.00" arrivalLane="27669864_0" arrivalPos="0.20" arrivalSpeed="2.85" duration="690.00" routeLength="3692.58" waitingTime="3.00" waitingCount="3" stopTime="45.00" timeLoss="192.65" rerouteNo="1" devices="tripinfo_flow_15_in.9 routing_flow_15_in.9 fcd_flow_15_in.9" vType="car" speedFactor="1.09" vaporized=""/>
    <tripinfo id="flow_5_in.9" depart="24365.00" departLane="-687674693#1_0" departPos="0.20" departSpeed="5.45" departDelay="0.71" arrival="25023.00" arrivalLane="-687674693#1_0" arrivalPos="0.20" arrivalSpeed="2.45" duration="658.00" routeLength="3023.04" waitingTime="38.00" waitingCount="3" stopTime="45.00" timeLoss="164.86" rerouteNo="1" devices="tripinfo_flow_5_in.9 routing_flow_5_in.9 fcd_flow_5_in.9" vType="car" speedFactor="1.00" vaporized=""/>
    <tripinfo id="flow_10_in.15" depart="24319.00" departLane="-687674681_0" departPos="0.20" departSpeed="14.49" departDelay="0.64" arrival="25030.00" arrivalLane="-687674681_0" arrivalPos="0.20" arrivalSpeed="10.65" duration="711.00" routeLength="2852.51" waitingTime="53.00" waitingCount="7" stopTime="45.00" timeLoss="246.88" rerouteNo="2" devices="tripinfo_flow_10_in.15 routing_flow_10_in.15 fcd_flow_10_in.15" vType="car" speedFactor="1.04" vaporized=""/>
    <tripinfo id="flow_10_in.16" depart="24380.00" departLane="-687674681_0" departPos="0.20" departSpeed="0.00" departDelay="0.42" arrival="25123.00" arrivalLane="-687674681_0" arrivalPos="0.20" arrivalSpeed="10.48" duration="743.00" routeLength="2852.51" waitingTime="42.00" waitingCount="6" stopTime="45.00" timeLoss="212.37" rerouteNo="1" devices="tripinfo_flow_10_in.16 routing_flow_10_in.16 fcd_flow_10_in.16" vType="car" speedFactor="0.90" vaporized=""/>
    <tripinfo id="flow_0_in.11" depart="24383.00" departLane="-690833056#0_0" departPos="5.10" departSpeed="12.18" departDelay="0.85" arrival="25133.00" arrivalLane="-690833056#0_0" arrivalPos="10.76" arrivalSpeed="9.12" duration="750.00" routeLength="3544.68" waitingTime="1.00" waitingCount="1" stopTime="45.00" timeLoss="137.23" rerouteNo="1" devices="tripinfo_flow_0_in.11 routing_flow_0_in.11 fcd_flow_0_in.11" vType="car" speedFactor="0.88" vaporized=""/>
    <tripinfo id="flow_0_in.12" depart="24472.00" departLane="-690833056#0_0" departPos="5.10" departSpeed="16.24" departDelay="0.57" arrival="25149.00" arrivalLane="-690833056#0_0" arrivalPos="10.76" arrivalSpeed="9.86" duration="677.00" routeLength="3544.68" waitingTime="0.00" waitingCount="0" stopTime="45.00" timeLoss="206.12" rerouteNo="1" devices="tripinfo_flow_0_in.12 routing_flow_0_in.12 fcd_flow_0_in.12" vType="car" speedFactor="1.17" vaporized=""/>
    <tripinfo id="flow_5_in.10" depart="24473.00" departLane="-687674693#1_0" departPos="0.20" departSpeed="5.45" departDelay="1.57" arrival="25152.00" arrivalLane="-687674693#1_0" arrivalPos="0.20" arrivalSpeed="3.04" duration="679.00" routeLength="3023.04" waitingTime="2.00" waitingCount="2" stopTime="45.00" timeLoss="195.59" rerouteNo="1" devices="tripinfo_flow_5_in.10 routing_flow_5_in.10 fcd_flow_5_in.10" vType="car" speedFactor="1.02" vaporized=""/>
    <tripinfo id="flow_15_in.10" depart="24421.00" departLane="27669864_0" departPos="0.20" departSpeed="4.12" departDelay="0.59" arrival="25187.00" arrivalLane="27669864_0" arrivalPos="0.20" arrivalSpeed="2.76" duration="766.00" routeLength="3692.58" waitingTime="2.00" waitingCount="2" stopTime="45.00" timeLoss="147.73" rerouteNo="1" devices="tripinfo_flow_15_in.10 routing_flow_15_in.10 fcd_flow_15_in.10" vType="car" speedFactor="0.85" vaporized=""/>
    <tripinfo id="flow_15_in.11" depart="24526.00" departLane="27669864_0" departPos="0.20" departSpeed="4.12" departDelay="3.55" arrival="25198.00" arrivalLane="27669864_0" arrivalPos="0.20" arrivalSpeed="2.73" duration="672.00" routeLength="3692.58" waitingTime="3.00" waitingCount="3" stopTime="45.00" timeLoss="137.28" rerouteNo="1" devices="tripinfo_flow_15_in.11 routing_flow_15_in.11 fcd_flow_15_in.11" vType="car" speedFactor="1.00" vaporized=""/>
    <tripinfo id="flow_5_in.11" depart="24579.00" departLane="-687674693#1_0" departPos="0.20" departSpeed="5.45" departDelay="0.43" arrival="25231.00" arrivalLane="-687674693#1_0" arrivalPos="0.20" arrivalSpeed="3.01" duration="652.00" routeLength="3023.04" waitingTime="2.00" waitingCount="2" stopTime="45.00" timeLoss="214.58" rerouteNo="1" devices="tripinfo_flow_5_in.11 routing_flow_5_in.11 fcd_flow_5_in.11" vType="car" speedFactor="1.14" vaporized=""/>
    <tripinfo id="flow_10_in.17" depart="24441.00" departLane="-687674681_0" departPos="0.20" departSpeed="0.00" departDelay="0.19" arrival="25233.00" arrivalLane="-687674681_0" arrivalPos="0.20" arrivalSpeed="10.88" duration="792.00" routeLength="2852.51" waitingTime="75.00" waitingCount="6" stopTime="45.00" timeLoss="234.45" rerouteNo="1" devices="tripinfo_flow_10_in.17 routing_flow_10_in.17 fcd_flow_10_in.17" vType="car" speedFactor="0.85" vaporized=""/>
    <tripinfo id="flow_10_in.18" depart="24503.00" departLane="-687674681_0" departPos="0.20" departSpeed="15.22" departDelay="0.97" arrival="25236.00" arrivalLane="-687674681_0" arrivalPos="0.20" arrivalSpeed="8.94" duration="733.00" routeLength="2858.60" waitingTime="38.00" waitingCount="7" stopTime="45.00" timeLoss="282.93" rerouteNo="2" devices="tripinfo_flow_10_in.18 routing_flow_10_in.18 fcd_flow_10_in.18" vType="car" speedFactor="1.10" vaporized=""/>
    <tripinfo id="flow_0_in.13" depart="24561.00" departLane="-690833056#0_0" departPos="5.10" departSpeed="13.83" departDelay="0.28" arrival="25279.00" arrivalLane="-690833056#0_0" arrivalPos="10.76" arrivalSpeed="7.62" duration="718.00" routeLength="3544.68" waitingTime="2.00" waitingCount="1" stopTime="45.00" timeLoss="172.38" rerouteNo="1" devices="tripinfo_flow_0_in.13 routing_flow_0_in.13 fcd_flow_0_in.13" vType="car" speedFactor="1.00" vaporized=""/>
    <tripinfo id="flow_10_in.19" depart="24572.00" departLane="-687674681_0" departPos="0.20" departSpeed="12.49" departDelay="8.74" arrival="25301.00" arrivalLane="-687674681_0" arrivalPos="0.20" arrivalSpeed="11.66" duration="729.00" routeLength="2852.51" waitingTime="44.00" waitingCount="5" stopTime="45.00" timeLoss="197.11" rerouteNo="1" devices="tripinfo_flow_10_in.19 routing_flow_10_in.19 fcd_flow_10_in.19" vType="car" speedFactor="0.90" vaporized=""/>
    <tripinfo id="flow_10_in.20" depart="24625.00" departLane="-687674681_0" departPos="0.20" departSpeed="0.00" departDelay="0.52" arrival="25305.00" arrivalLane="-687674681_0" arrivalPos="0.20" arrivalSpeed="9.57" duration="680.00" routeLength="2917.72" waitingTime="37.00" waitingCount="4" stopTime="45.00" timeLoss="201.41" rerouteNo="3" devices="tripinfo_flow_10_in.20 routing_flow_10_in.20 fcd_flow_10_in.20" vType="car" speedFactor="1.02" vaporized=""/>
    <tripinfo id="flow_5_in.12" depart="24686.00" departLane="-687674693#1_0" departPos="0.20" departSpeed="5.45" departDelay="0.28" arrival="25311.00" arrivalLane="-687674693#1_0" arrivalPos="0.20" arrivalSpeed="2.87" duration="625.00" routeLength="3023.04" waitingTime="2.00" waitingCount="2" stopTime="45.00" timeLoss="179.43" rerouteNo="1" devices="tripinfo_flow_5_in.12 routing_flow_5_in.12 fcd_flow_5_in.12" vType="car" speedFactor="1.12" vaporized=""/>
    <tripinfo id="flow_0_in.14" depart="24651.00" departLane="-690833056#0_0" departPos="5.10" departSpeed="15.04" departDelay="1.00" arrival="25335.00" arrivalLane="-690833056#0_0" arrivalPos="10.76" arrivalSpeed="9.57" duration="684.00" routeLength="3590.55" waitingTime="2.00" waitingCount="2" stopTime="45.00" timeLoss="174.20" rerouteNo="1" devices="tripinfo_flow_0_in.14 routing_flow_0_in.14 fcd_flow_0_in.14" vType="car" speedFactor="1.08" vaporized=""/>
    <tripinfo id="flow_15_in.12" depart="24625.00" departLane="27669864_0" departPos="0.20" departSpeed="4.12" departDelay="0.51" arrival="25338.00" arrivalLane="27669864_0" arrivalPos="0.20" arrivalSpeed="2.92" duration="713.00" routeLength="3692.58" waitingTime="16.00" waitingCount="3" stopTime="45.00" timeLoss="163.71" rerouteNo="1" devices="tripinfo_flow_15_in.12 routing_flow_15_in.12 fcd_flow_15_in.12" vType="car" speedFactor="0.97" vaporized=""/>