<?xml version="1.0" encoding="UTF-8"?>

<!-- generated on 2026-04-04T17:58:22.685925+02:00 by Eclipse SUMO sumo 1.26.0
<sumoConfiguration xmlns:xsi="http://www.w3.org/2001/XMLSchema-instance" xsi:noNamespaceSchemaLocation="http://sumo.dlr.de/xsd/sumoConfiguration.xsd">

    <input>
        <net-file value="C:\Users\neill\Github\tokai-sim\sim\sumo\bergvliet.net.xml"/>
        <route-files value="C:\Users\neill\Github\tokai-sim\sim\sumo\demand-M.rou.xml"/>
        <additional-files value="C:\Users\neill\Github\tokai-sim\sim\sumo\speed-humps.add.xml"/>
    </input>

    <output>
        <fcd-output value="C:\Users\neill\Github\tokai-sim\sim\sumo\fcd-M.xml"/>
        <tripinfo-output value="C:\Users\neill\Github\tokai-sim\sim\sumo\tripinfo-M.xml"/>
    </output>

    <time>
        <begin value="23400"/>
        <end value="32400"/>
        <step-length value="1"/>
    </time>

    <processing>
        <ignore-route-errors value="true"/>
    </processing>

    <routing>
        <routing-algorithm value="astar"/>
        <device.rerouting.probability value="1.0"/>
        <device.rerouting.period value="60"/>
        <device.rerouting.pre-period value="0"/>
    </routing>

    <report>
        <no-warnings value="true"/>
        <no-step-log value="true"/>
    </report>

    <fcd_device>
        <device.fcd.period value="30"/>
    </fcd_device>

</sumoConfiguration>
-->

<tripinfos xmlns:xsi="http://www.w3.org/2001/XMLSchema-instance" xsi:noNamespaceSchemaLocation="http://sumo.dlr.de/xsd/tripinfo_file.xsd">
    <tripinfo id="flow_5_in.0" depart="23400.00" departLane="-687674693#1_0" departPos="0.20" departSpeed="5.45" departDelay="0.00" arrival="24057.00" arrivalLane="-687674693#1_0" arrivalPos="0.20" arrivalSpeed="3.26" duration="657.00" routeLength="3023.04" waitingTime="2.00" waitingCount="2" stopTime="45.00" timeLoss="138.69" rerouteNo="1" devices="tripinfo_flow_5_in.0 routing_flow_5_in.0 fcd_flow_5_in.0" vType="car" speedFactor="0.94" vaporized=""/>
    <tripinfo id="flow_10_in.0" depart="23400.00" departLane="-687674681_0" departPos="0.20" departSpeed="14.03" departDelay="0.00" arrival="24062.00" arrivalLane="-687674681_0" arrivalPos="0.20" arrivalSpeed="10.36" duration="662.00" routeLength="2925.56" waitingTime="5.00" waitingCount="5" stopTime="45.00" timeLoss="175.95" rerouteNo="1" devices="tripinfo_flow_10_in.0 routing_flow_10_in.0 fcd_flow_10_in.0" vType="car" speedFactor="1.01" vaporized=""/>
    <tripinfo id="flow_0_in.0" depart="23400.00" departLane="-690833056#0_0" departPos="5.10" departSpeed="14.72" departDelay="0.00" arrival="24085.00" arrivalLane="-690833056#0_0" arrivalPos="10.76" arrivalSpeed="9.56" duration="685.00" routeLength="3544.68" waitingTime="10.00" waitingCount="1" stopTime="45.00" timeLoss="169.90" rerouteNo="1" devices="tripinfo_flow_0_in.0 routing_flow_0_in.0 fcd_flow_0_in.0" vType="car" speedFactor="1.06" vaporized=""/>
    <tripinfo id="flow_15_in.0" depart="23400.00" departLane="27669864_0" departPos="0.20" departSpeed="4.12" departDelay="0.00" arrival="24093.00" arrivalLane="27669864_0" arrivalPos="0.20" arrivalSpeed="2.65" duration="693.00" routeLength="3692.58" waitingTime="6.00" waitingCount="3" stopTime="45.00" timeLoss="191.92" rerouteNo="1" devices="tripinfo_flow_15_in.0 routing_flow_15_in.0 fcd_flow_15_in.0" vType="car" speedFactor="1.08" vaporized=""/>
    <tripinfo id="flow_10_in.1" depart="23492.00" departLane="-687674681_0" departPos="0.20" departSpeed="14.31" departDelay="0.82" arrival="24130.00" arrivalLane="-687674681_0" arrivalPos="0.20" arrivalSpeed="10.53" duration="638.00" routeLength="2852.51" waitingTime="29.00" waitingCount="5" stopTime="45.00" timeLoss="168.75" rerouteNo="1" devices="tripinfo_flow_10_in.1 routing_flow_10_in.1 fcd_flow_10_in.1" vType="car" speedFactor="1.03" vaporized=""/>
    <tripinfo id="flow_5_in.1" depart="23572.00" departLane="-687674693#1_0" departPos="0.20" departSpeed="5.45" departDelay="0.57" arrival="24171.00" arrivalLane="-687674693#1_0" arrivalPos="0.20" arrivalSpeed="2.99" duration="599.00" routeLength="3023.04" waitingTime="2.00" waitingCount="2" stopTime="45.00" timeLoss="126.95" rerouteNo="1" devices="tripinfo_flow_5_in.1 routing_flow_5_in.1 fcd_flow_5_in.1" vType="car" speedFactor="1.05" vaporized=""/>
    <tripinfo id="flow_10_in.2" depart="23583.00" departLane="-687674681_0" departPos="0.20" departSpeed="12.31" departDelay="0.63" arrival="24311.00" arrivalLane="-687674681_0" arrivalPos="0.20" arrivalSpeed="10.76" duration="728.00" routeLength="2852.51" waitingTime="38.00" waitingCount="5" stopTime="45.00" timeLoss="190.22" rerouteNo="1" devices="tripinfo_flow_10_in.2 routing_flow_10_in.2 fcd_flow_10_in.2" vType="car" speedFactor="0.89" vaporized=""/>
    <tripinfo id="flow_10_in.3" depart="23674.00" departLane="-687674681_0" departPos="0.20" departSpeed="13.03" departDelay="0.45" arrival="24329.00" arrivalLane="-687674681_0" arrivalPos="0.20" arrivalSpeed="10.18" duration="655.00" routeLength="2852.51" waitingTime="4.00" waitingCount="4" stopTime="45.00" timeLoss="142.62" rerouteNo="1" devices="tripinfo_flow_10_in.3 routing_flow_10_in.3 fcd_flow_10_in.3" vType="car" speedFactor="0.94" vaporized=""/>
    <tripinfo id="flow_5_in.2" depart="23743.00" departLane="-687674693#1_0" departPos="0.20" departSpeed="5.45" departDelay="0.14" arrival="24334.00" arrivalLane="-687674693#1_0" arrivalPos="0.20" arrivalSpeed="3.58" duration="591.00" routeLength="3023.04" waitingTime="2.00" waitingCount="2" stopTime="45.00" timeLoss="137.14" rerouteNo="1" devices="tripinfo_flow_5_in.2 routing_flow_5_in.2 fcd_flow_5_in.2" vType="car" speedFactor="1.09" vaporized=""/>
    <tripinfo id="flow_0_in.1" depart="23572.00" departLane="-690833056#0_0" departPos="5.10" departSpeed="11.54" departDelay="0.57" arrival="24358.00" arrivalLane="-690833056#0_0" arrivalPos="10.76" arrivalSpeed="7.88" duration="786.00" routeLength="3544.68" waitingTime="0.00" waitingCount="0" stopTime="45.00" timeLoss="142.05" rerouteNo="1" devices="tripinfo_flow_0_in.1 routing_flow_0_in.1 fcd_flow_0_in.1" vType="car" speedFactor="0.83" vaporized=""/>
    <tripinfo id="flow_10_in.4" depart="23765.00" departLane="-687674681_0" departPos="0.20" departSpeed="14.26" departDelay="0.26" arrival="24401.00" arrivalLane="-687674681_0" arrivalPos="0.20" arrivalSpeed="10.64" duration="636.00" routeLength="2925.56" waitingTime="18.00" waitingCount="5" stopTime="45.00" timeLoss="159.10" rerouteNo="1" devices="tripinfo_flow_10_in.4 routing_flow_10_in.4 fcd_flow_10_in.4" vType="car" speedFactor="1.03" vaporized=""/>
    <tripinfo id="flow_10_in.5" depart="23856.00" departLane="-687674681_0" departPos="0.20" departSpeed="14.54" departDelay="0.08" arrival="24491.00" arrivalLane="-687674681_0" arrivalPos="0.20" arrivalSpeed="10.80" duration="635.00" routeLength="2925.56" waitingTime="29.00" waitingCount="5" stopTime="45.00" timeLoss="165.78" rerouteNo="1" devices="tripinfo_flow_10_in.5 routing_flow_10_in.5 fcd_flow_10_in.5" vType="car" speedFactor="1.05" vaporized=""/>
    <tripinfo id="flow_0_in.2" depart="23743.00" departLane="-690833056#0_0" departPos="5.10" departSpeed="11.90" departDelay="0.14" arrival="24505.00" arrivalLane="-690833056#0_0" arrivalPos="10.76" arrivalSpeed="8.62" duration="762.00" routeLength="3544.68" waitingTime="0.00" waitingCount="0" stopTime="45.00" timeLoss="136.17" rerouteNo="1" devices="tripinfo_flow_0_in.2 routing_flow_0_in.2 fcd_flow_0_in.2" vType="car" speedFactor="0.86" vaporized=""/>
    <tripinfo id="flow_5_in.3" depart="23915.00" departLane="-687674693#1_0" departPos="0.20" departSpeed="5.45" departDelay="0.71" arrival="24535.00" arrivalLane="-687674693#1_0" arrivalPos="0.20" arrivalSpeed="2.41" duration="620.00" routeLength="3023.04" waitingTime="2.00" waitingCount="2" stopTime="45.00" timeLoss="126.14" rerouteNo="1" devices="tripinfo_flow_5_in.3 routing_flow_5_in.3 fcd_flow_5_in.3" vType="car" speedFactor="0.99" vaporized=""/>
    <tripinfo id="flow_0_in.3" depart="23915.00" departLane="-690833056#0_0" departPos="5.10" departSpeed="15.60" departDelay="0.71" arrival="24547.00" arrivalLane="-690833056#0_0" arrivalPos="10.76" arrivalSpeed="9.77" duration="632.00" routeLength="3590.55" waitingTime="2.00" waitingCount="2" stopTime="45.00" timeLoss="141.28" rerouteNo="1" devices="tripinfo_flow_0_in.3 routing_flow_0_in.3 fcd_flow_0_in.3" vType="car" speedFactor="1.12" vaporized=""/>
    <tripinfo id="flow_10_in.6" depart="23948.00" departLane="-687674681_0" departPos="0.20" departSpeed="12.87" departDelay="0.89" arrival="24672.00" arrivalLane="-687674681_0" arrivalPos="0.20" arrivalSpeed="10.68" duration="724.00" routeLength="2852.51" waitingTime="45.00" waitingCount="5" stopTime="45.00" timeLoss="206.31" rerouteNo="1" devices="tripinfo_flow_10_in.6 routing_flow_10_in.6 fcd_flow_10_in.6" vType="car" speedFactor="0.93" vaporized=""/>
    <tripinfo id="flow_5_in.4" depart="24086.00" departLane="-687674693#1_0" departPos="0.20" departSpeed="5.45" departDelay="0.28" arrival="24751.00" arrivalLane="-687674693#1_0" arrivalPos="0.20" arrivalSpeed="3.12" duration="665.00" routeLength="3023.04" waitingTime="2.00" waitingCount="2" stopTime="45.00" timeLoss="145.95" rerouteNo="1" devices="tripinfo_flow_5_in.4 routing_flow_5_in.4 fcd_flow_5_in.4" vType="car" speedFactor="0.94" vaporized=""/>
    <tripinfo id="flow_10_in.7" depart="24039.00" departLane="-687674681_0" departPos="0.20" departSpeed="12.20" departDelay="0.71" arrival="24761.00" arrivalLane="-687674681_0" arrivalPos="0.20" arrivalSpeed="11.37" duration="722.00" routeLength="2852.51" waitingTime="21.00" waitingCount="5" stopTime="45.00" timeLoss="178.40" rerouteNo="1" devices="tripinfo_flow_10_in.7 routing_flow_10_in.7 fcd_flow_10_in.7" vType="car" speedFactor="0.88" vaporized=""/>
    <tripinfo id="flow_10_in.8" depart="24130.00" departLane="-687674681_0" departPos="0.20" departSpeed="16.09" departDelay="0.52" arrival="24766.00" arrivalLane="-687674681_0" arrivalPos="0.20" arrivalSpeed="10.40" duration="636.00" routeLength="2917.72" waitingTime="19.00" waitingCount="5" stopTime="45.00" timeLoss="208.62" rerouteNo="1" devices="tripinfo_flow_10_in.8 routing_flow_10_in.8 fcd_flow_10_in.8" vType="car" speedFactor="1.16" vaporized=""/>
    <tripinfo id="flow_0_in.4" depart="24086.00" departLane="-690833056#0_0" departPos="5.10" departSpeed="13.08" departDelay="0.28" arrival="24782.00" arrivalLane="-690833056#0_0" arrivalPos="10.76" arrivalSpeed="9.82" duration="696.00" routeLength="3544.68" waitingTime="0.00" waitingCount="0" stopTime="45.00" timeLoss="123.23" rerouteNo="1" devices="tripinfo_flow_0_in.4 routing_flow_0_in.4 fcd_flow_0_in.4" vType="car" speedFactor="0.94" vaporized=""/>
    <tripinfo id="flow_10_in.9" depart="24221.00" departLane="-687674681_0" departPos="0.20" departSpeed="14.14" departDelay="0.34" arrival="24852.00" arrivalLane="-687674681_0" arrivalPos="0.20" arrivalSpeed="9.63" duration="631.00" routeLength="2925.56" waitingTime="10.00" waitingCount="5" stopTime="45.00" timeLoss="148.76" rerouteNo="1" devices="tripinfo_flow_10_in.9 routing_flow_10_in.9 fcd_flow_10_in.9" vType="car" speedFactor="1.02" vaporized=""/>
    <tripinfo id="flow_5_in.5" depart="24258.00" departLane="-687674693#1_0" departPos="0.20" departSpeed="5.45" departDelay="0.86" arrival="24890.00" arrivalLane="-687674693#1_0" arrivalPos="0.20" arrivalSpeed="2.30" duration="632.00" routeLength="3023.04" waitingTime="2.00" waitingCount="2" stopTime="45.00" timeLoss="131.86" rerouteNo="1" devices="tripinfo_flow_5_in.5 routing_flow_5_in.5 fcd_flow_5_in.5" vType="car" speedFactor="0.97" vaporized=""/>
    <tripinfo id="flow_0_in.5" depart="24258.00" departLane="-690833056#0_0" departPos="5.10" departSpeed="14.03" departDelay="0.86" arrival="24919.00" arrivalLane="-690833056#0_0" arrivalPos="10.76" arrivalSpeed="7.93" duration="661.00" routeLength="3544.68" waitingTime="0.00" waitingCount="0" stopTime="45.00" timeLoss="122.96" rerouteNo="1" devices="tripinfo_flow_0_in.5 routing_flow_0_in.5 fcd_flow_0_in.5" vType="car" speedFactor="1.01" vaporized=""/>
    <tripinfo id="flow_10_in.10" depart="24312.00" departLane="-687674681_0" departPos="0.20" departSpeed="12.36" departDelay="0.15" arrival="25031.00" arrivalLane="-687674681_0" arrivalPos="0.20" arrivalSpeed="10.18" duration="719.00" routeLength="2852.51" waitingTime="23.00" waitingCount="5" stopTime="45.00" timeLoss="180.50" rerouteNo="1" devices="tripinfo_flow_10_in.10 routing_flow_10_in.10 fcd_flow_10_in.10" vType="car" speedFactor="0.89" vaporized=""/>
    <tripinfo id="flow_5_in.6" depart="24429.00" departLane="-687674693#1_0" departPos="0.20" departSpeed="5.45" departDelay="0.43" arrival="25102.00" arrivalLane="-687674693#1_0" arrivalPos="0.20" arrivalSpeed="3.20" duration="673.00" routeLength="3023.04" waitingTime="2.00" waitingCount="2" stopTime="45.00" timeLoss="144.40" rerouteNo="1" devices="tripinfo_flow_5_in.6 routing_flow_5_in.6 fcd_flow_5_in.6" vType="car" speedFactor="0.92" vaporized=""/>
    <tripinfo id="flow_5_in.7" depart="24601.00" departLane="-687674693#1_0" departPos="0.20" departSpeed="5.45" departDelay="1.00" arrival="25166.00" arrivalLane="-687674693#1_0" arrivalPos="0.20" arrivalSpeed="3.57" duration="565.00" routeLength="3023.04" waitingTime="2.00" waitingCount="2" stopTime="45.00" timeLoss="138.45" rerouteNo="1" devices="tripinfo_flow_5_in.7 routing_flow_5_in.7 fcd_flow_5_in.7" vType="car" speedFactor="1.18" vaporized=""/>
    <tripinfo id="flow_0_in.6" depart="24429.00" departLane="-690833056#0_0" departPos="5.10" departSpeed="12.12" departDelay="0.43" arrival="25189.00" arrivalLane="-690833056#0_0" arrivalPos="10.76" arrivalSpeed="8.95" duration="760.00" routeLength="3544.68" waitingTime="0.00" waitingCount="0" stopTime="45.00" timeLoss="144.26" rerouteNo="1" devices="tripinfo_flow_0_in.6 routing_flow_0_in.6 fcd_flow_0_in.6" vType="car" speedFactor="0.87" vaporized=""/>
    <tripinfo id="flow_10_in.11" depart="24404.00" departLane="-687674681_0" departPos="0.20" departSpeed="11.47" departDelay="0.97" arrival="25204.00" arrivalLane="-687674681_0" arrivalPos="0.20" arrivalSpeed="8.82" duration="800.00" routeLength="2852.51" waitingTime="57.00" waitingCount="7" stopTime="45.00" timeLoss="223.26" rerouteNo="1" devices="tripinfo_flow_10_in.11 routing_flow_10_in.11 fcd_flow_10_in.11" vType="car" speedFactor="0.83" vaporized=""/>
    <tripinfo id="flow_10_in.12" depart="24495.00" departLane="-687674681_0" departPos="0.20" departSpeed="13.18" departDelay="0.78" arrival="25205.00" arrivalLane="-687674681_0" arrivalPos="0.20" arrivalSpeed="9.22" duration="710.00" routeLength="2925.56" waitingTime="51.00" waitingCount="5" stopTime="45.00" timeLoss="197.74" rerouteNo="1" devices="tripinfo_flow_10_in.12 routing_flow_10_in.12 fcd_flow_10_in.12" vType="car" speedFactor="0.95" vaporized=""/>
    <tripinfo id="flow_10_in.13" depart="24586.00" departLane="-687674681_0" departPos="0.20" departSpeed="15.72" departDelay="0.60" arrival="25215.00" arrivalLane="-687674681_0" arrivalPos="0.20" arrivalSpeed="10.95" duration="629.00" routeLength="2925.56" waitingTime="53.00" waitingCount="5" stopTime="45.00" timeLoss="191.47" rerouteNo="2" devices="tripinfo_flow_10_in.13 routing_flow_10_in.13 fcd_flow_10_in.13" vType="car" speedFactor="1.13" vaporized=""/>
    <tripinfo id="flow_10_in.14" depart="24677.00" departLane="-687674681_0" departPos="0.20" departSpeed="16.03" departDelay="0.41" arrival="25301.00" arrivalLane="-687674681_0" arrivalPos="0.20" arrivalSpeed="11.03" duration="624.00" routeLength="2925.56" waitingTime="20.00" waitingCount="5" stopTime="45.00" timeLoss="194.89" rerouteNo="2" devices="tripinfo_flow_10_in.14 routing_flow_10_in.14 fcd_flow_10_in.14" vType="car" speedFactor="1.15" vaporized=""/>
    <tripinfo id="flow_0_in.7" depart="24601.00" departLane="-690833056#0_0" departPos="5.10" departSpeed="12.94" departDelay="1.00" arrival="25314.00" arrivalLane="-690833056#0_0" arrivalPos="10.76" arrivalSpeed="7.59" duration="713.00" routeLength="3544.68" waitingTime="0.00" waitingCount="0" stopTime="45.00" timeLoss="133.26" rerouteNo="1" devices="tripinfo_flow_0_in.7 routing_flow_0_in.7 fcd_flow_0_in.7" vType="car" speedFactor="0.93" vaporized=""/>
    <tripinfo id="flow_5_in.8" depart="24772.00" departLane="-687674693#1_0" departPos="0.20" departSpeed="5.45" departDelay="0.57" arrival="25402.00" arrivalLane="-687674693#1_0" arrivalPos="0.20" arrivalSpeed="3.53" duration="630.00" routeLength="3023.04" waitingTime="3.00" waitingCount="3" stopTime="45.00" timeLoss="138.11" rerouteNo="1" devices="tripinfo_flow_5_in.8 routing_flow_5_in.8 fcd_flow_5_in.8" vType="car" speedFactor="0.99" vaporized=""/>
    <tripinfo id="flow_10_in.15" depart="24768.00" departLane="-687674681_0" departPos="0.20" departSpeed="13.96" departDelay="0.23" arrival="25410.00" arrivalLane="-687674681_0" arrivalPos="0.20" arrivalSpeed="11.05" duration="642.00" routeLength="2925.56" waitingTime="4.00" waitingCount="4" stopTime="45.00" timeLoss="155.16" rerouteNo="1" devices="tripinfo_flow_10_in.15 routing_flow_10_in.15 fcd_flow_10_in.15" vType="car" speedFactor="1.01" vaporized=""/>
    <tripinfo id="flow_0_in.8" depart="24772.00" departLane="-690833056#0_0" departPos="5.10" departSpeed="16.28" departDelay="0.57" arrival="25415.00" arrivalLane="-690833056#0_0" arrivalPos="10.76" arrivalSpeed="9.47" duration="643.00" routeLength="3544.68" waitingTime="6.00" waitingCount="1" stopTime="45.00" timeLoss="172.64" rerouteNo="1" devices="tripinfo_flow_0_in.8 routing_flow_0_in.8 fcd_flow_0_in.8" vType="car" speedFactor="1.17" vaporized=""/>
    <tripinfo id="flow_15_in.1" depart="24829.00" departLane="27669864_0" departPos="0.20" departSpeed="4.12" departDelay="0.43" arrival="25486.00" arrivalLane="27669864_0" arrivalPos="0.20" arrivalSpeed="2.45" duration="657.00" routeLength="3692.58" waitingTime="2.00" waitingCount="2" stopTime="45.00" timeLoss="131.71" rerouteNo="1" devices="tripinfo_flow_15_in.1 routing_flow_15_in.1 fcd_flow_15_in.1" vType="car" speedFactor="1.02" vaporized=""/>
    <tripinfo id="flow_10_in.16" depart="24859.00" departLane="-687674681_0" departPos="0.20" departSpeed="13.52" departDelay="0.04" arrival="25502.00" arrivalLane="-687674681_0" arrivalPos="0.20" arrivalSpeed="10.03" duration="643.00" routeLength="2852.51" waitingTime="5.00" waitingCount="5" stopTime="45.00" timeLoss="147.82" rerouteNo="1" devices="tripinfo_flow_10_in.16 routing_flow_10_in.16 fcd_flow_10_in.16" vType="car" speedFactor="0.97" vaporized=""/>
    <tripinfo id="flow_5_in.9" depart="24943.00" departLane="-687674693#1_0" departPos="0.20" departSpeed="5.45" departDelay="0.14" arrival="25524.00" arrivalLane="-687674693#1_0" arrivalPos="0.20" arrivalSpeed="2.77" duration="581.00" routeLength="3023.04" waitingTime="2.00" waitingCount="2" stopTime="45.00" timeLoss="128.52" rerouteNo="1" devices="tripinfo_flow_5_in.9 routing_flow_5_in.9 fcd_flow_5_in.9" vType="car" speedFactor="1.10" vaporized=""/>
    <tripinfo id="flow_0_in.9" depart="24943.00" departLane="-690833056#0_0" departPos="5.10" departSpeed="16.39" departDelay="0.14" arrival="25537.00" arrivalLane="-690833056#0_0" arrivalPos="10.76" arrivalSpeed="8.47" duration="594.00" routeLength="3544.68" waitingTime="0.00" waitingCount="0" stopTime="45.00" timeLoss="126.65" rerouteNo="1" devices="tripinfo_flow_0_in.9 routing_flow_0_in.9 fcd_flow_0_in.9" vType="car" speedFactor="1.18" vaporized=""/>
    <tripinfo id="flow_10_in.17" depart="24951.00" departLane="-687674681_0" departPos="0.20" departSpeed="12.51" departDelay="0.86" arrival="25662.00" arrivalLane="-687674681_0" arrivalPos="0.20" arrivalSpeed="9.93" duration="711.00" routeLength="2852.51" waitingTime="27.00" waitingCount="5" stopTime="45.00" timeLoss="179.61" rerouteNo="1" devices="tripinfo_flow_10_in.17 routing_flow_10_in.17 fcd_flow_10_in.17" vType="car" speedFactor="0.90" vaporized=""/>
    <tripinfo id="flow_10_in.18" depart="25042.00" departLane="-687674681_0" departPos="0.20" departSpeed="14.31" departDelay="0.67" arrival="25666.00" arrivalLane="-687674681_0" arrivalPos="0.20" arrivalSpeed="9.96" duration="624.00" routeLength="2925.56" waitingTime="5.00" waitingCount="5" stopTime="45.00" timeLoss="145.91" rerouteNo="2" devices="tripinfo_flow_10_in.18 routing_flow_10_in.18 fcd_flow_10_in.18" vType="car" speedFactor="1.03" vaporized=""/>
    <tripinfo id="flow_5_in.10" depart="25115.00" departLane="-687674693#1_0" departPos="0.20" departSpeed="5.45" departDelay="0.71" arrival="25707.00" arrivalLane="-687674693#1_0" arrivalPos="0.20" arrivalSpeed="2.71" duration="592.00" routeLength="3023.04" waitingTime="2.00" waitingCount="2" stopTime="45.00" timeLoss="135.98" rerouteNo="1" devices="tripinfo_flow_5_in.10 routing_flow_5_in.10 fcd_flow_5_in.10" vType="car" speedFactor="1.09" vaporized=""/>
    <tripinfo id="flow_10_in.19" depart="25133.00" departLane="-687674681_0" departPos="0.20" departSpeed="14.42" departDelay="0.49" arrival="25751.00" arrivalLane="-687674681_0" arrivalPos="0.20" arrivalSpeed="11.44" duration="618.00" routeLength="2917.72" waitingTime="3.00" waitingCount="3" stopTime="45.00" timeLoss="146.17" rerouteNo="1" devices="tripinfo_flow_10_in.19 routing_flow_10_in.19 fcd_flow_10_in.19" vType="car" speedFactor="1.04" vaporized=""/>
    <tripinfo id="flow_0_in.10" depart="25115.00" departLane="-690833056#0_0" departPos="5.10" departSpeed="13.29" departDelay="0.71" arrival="25810.00" arrivalLane="-690833056#0_0" arrivalPos="10.76" arrivalSpeed="8.22" duration="695.00" routeLength="3544.68" waitingTime="0.00" waitingCount="0" stopTime="45.00" timeLoss="129.66" rerouteNo="1" devices="tripinfo_flow_0_in.10 routing_flow_0_in.10 fcd_flow_0_in.10" vType="car" speedFactor="0.96" vaporized=""/>
    <tripinfo id="flow_10_in.20" depart="25224.00" departLane="-687674681_0" departPos="0.20" departSpeed="14.49" departDelay="0.30" arrival="25842.00" arrivalLane="-687674681_0" arrivalPos="0.20" arrivalSpeed="10.82" duration="618.00" routeLength="2852.51" waitingTime="10.00" waitingCount="5" stopTime="45.00" timeLoss="152.65" rerouteNo="2" devices="tripinfo_flow_10_in.20 routing_flow_10_in.20 fcd_flow_10_in.20" vType="car" speedFactor="1.04" vaporized=""/>
    <tripinfo id="flow_5_in.11" depart="25286.00" departLane="-687674693#1_0" departPos="0.20" departSpeed="5.45" departDelay="0.28" arrival="25911.00" arrivalLane="-687674693#1_0" arrivalPos="0.20" arrivalSpeed="3.20" duration="625.00" routeLength="3023.04" waitingTime="2.00" waitingCount="2" stopTime="45.00" timeLoss="132.41" rerouteNo="1" devices="tripinfo_flow_5_in.11 routing_flow_5_in.11 fcd_flow_5_in.11" vType="car" speedFactor="1.00" vaporized=""/>
    <tripinfo id="flow_0_in.11" depart="25286.00" departLane="-690833056#0_0" departPos="5.10" departSpeed="15.11" departDelay="0.28" arrival="25926.00" arrivalLane="-690833056#0_0" arrivalPos="10.76" arrivalSpeed="8.79" duration="640.00" routeLength="3544.68" waitingTime="0.00" waitingCount="0" stopTime="45.00" timeLoss="138.60" rerouteNo="1" devices="tripinfo_flow_0_in.11 routing_flow_0_in.11 fcd_flow_0_in.11" vType="car" speedFactor="1.09" vaporized=""/>
    <tripinfo id="flow_10_in.21" depart="25315.00" departLane="-687674681_0" departPos="0.20" departSpeed="12.51" departDelay="0.12" arrival="26022.00" arrivalLane="-687674681_0" arrivalPos="0.20" arrivalSpeed="9.10" duration="707.00" routeLength="2852.51" waitingTime="20.00" waitingCount="5" stopTime="45.00" timeLoss="176.32" rerouteNo="1" devices="tripinfo_flow_10_in.21 routing_flow_10_in.21 fcd_flow_10_in.21" vType="car" speedFactor="0.90" vaporized=""/>
    <tripinfo id="flow_10_in.22" depart="25407.00" departLane="-687674681_0" departPos="0.20" departSpeed="12.18" departDelay="0.93" arrival="26111.00" arrivalLane="-687674681_0" arrivalPos="0.20" arrivalSpeed="11.44" duration="704.00" routeLength="2852.51" waitingTime="10.00" waitingCount="5" stopTime="45.00" timeLoss="159.35" rerouteNo="1" devices="tripinfo_flow_10_in.22 routing_flow_10_in.22 fcd_flow_10_in.22" vType="car" speedFactor="0.88" vaporized=""/>
    <tripinfo id="flow_5_in.12" depart="25458.00" departLane="-687674693#1_0" departPos="0.20" departSpeed="5.45" departDelay="0.85" arrival="26172.00" arrivalLane="-687674693#1_0" arrivalPos="0.20" arrivalSpeed="1.95" duration="714.00" routeLength="3023.04" waitingTime="2.00" waitingCount="2" stopTime="45.00" timeLoss="150.40" rerouteNo="1" devices="tripinfo_flow_5_in.12 routing_flow_5_in.12 fcd_flow_5_in.12" vType="car" speedFactor="0.85" vaporized=""/>
    <tripinfo id="flow_10_in.23" depart="25498.00" departLane="-687674681_0" departPos="0.20" departSpeed="16.24" departDelay="0.75" arrival="26200.00" arrivalLane="-687674681_0" arrivalPos="0.20" arrivalSpeed="9.44" duration="702.00" routeLength="2925.56" waitingTime="49.00" waitingCount="5" stopTime="45.00" timeLoss="278.43" rerouteNo="2" devices="tripinfo_flow_10_in.23 routing_flow_10_in.23 fcd_flow_10_in.23" vType="car" speedFactor="1.17" vaporized=""/>
    <tripinfo id="flow_10_in.24" depart="25589.00" departLane="-687674681_0" departPos="0.20" departSpeed="14.12" departDelay="0.56" arrival="26210.00" arrivalLane="-687674681_0" arrivalPos="0.20" arrivalSpeed="10.74" duration="621.00" routeLength="2925.56" waitingTime="4.00" waitingCount="4" stopTime="45.00" timeLoss="139.67" rerouteNo="2" devices="tripinfo_flow_10_in.24 routing_flow_10_in.24 fcd_flow_10_in.24" vType="car" speedFactor="1.02" vaporized=""/>
    <tripinfo id="flow_0_in.12" depart="25458.00" departLane="-690833056#0_0" departPos="5.10" departSpeed="11.81" departDelay="0.85" arrival="26231.00" arrivalLane="-690833056#0_0" arrivalPos="10.76" arrivalSpeed="8.45" duration="773.00" routeLength="3544.68" waitingTime="0.00" waitingCount="0" stopTime="45.00" timeLoss="143.85" rerouteNo="1" devices="tripinfo_flow_0_in.12 routing_flow_0_in.12 fcd_flow_0_in.12" vType="car" speedFactor="0.85" vaporized=""/>
    <tripinfo id="flow_5_in.13" depart="25629.00" departLane="-687674693#1_0" departPos="0.20" departSpeed="5.45" departDelay="0.42" arrival="26239.00" arrivalLane="-687674693#1_0" arrivalPos="0.20" arrivalSpeed="2.99" duration="610.00" routeLength="3023.04" waitingTime="2.00" waitingCount="2" stopTime="45.00" timeLoss="122.69" rerouteNo="1" devices="tripinfo_flow_5_in.13 routing_flow_5_in.13 fcd_flow_5_in.13" vType="car" speedFactor="1.00" vaporized=""/>
    <tripinfo id="flow_0_in.13" depart="25629.00" departLane="-690833056#0_0" departPos="5.10" departSpeed="15.22" departDelay="0.42" arrival="26257.00" arrivalLane="-690833056#0_0" arrivalPos="10.76" arrivalSpeed="7.31" duration="628.00" routeLength="3590.55" waitingTime="1.00" waitingCount="1" stopTime="45.00" timeLoss="124.78" rerouteNo="1" devices="tripinfo_flow_0_in.13 routing_flow_0_in.13 fcd_flow_0_in.13" vType="car" speedFactor="1.10" vaporized=""/>
    <tripinfo id="flow_10_in.25" depart="25680.00" departLane="-687674681_0" departPos="0.20" departSpeed="13.83" departDelay="0.38" arrival="26310.00" arrivalLane="-687674681_0" arrivalPos="0.20" arrivalSpeed="10.79" duration="630.00" routeLength="2925.56" waitingTime="6.00" waitingCount="5" stopTime="45.00" timeLoss="139.89" rerouteNo="2" devices="tripinfo_flow_10_in.25 routing_flow_10_in.25 fcd_flow_10_in.25" vType="car" speedFactor="1.00" vaporized=""/>
    <tripinfo id="flow_5_in.14" depart="25801.00" departLane="-687674693#1_0" departPos="0.20" departSpeed="5.45" departDelay="0.99" arrival="26458.00" arrivalLane="-687674693#1_0" arrivalPos="0.20" arrivalSpeed="2.99" duration="657.00" routeLength="3023.04" waitingTime="2.00" waitingCount="2" stopTime="45.00" timeLoss="177.27" rerouteNo="1" devices="tripinfo_flow_5_in.14 routing_flow_5_in.14 fcd_flow_5_in.14" vType="car" speedFactor="1.02" vaporized=""/>
    <tripinfo id="flow_0_in.14" depart="25801.00" departLane="-690833056#0_0" departPos="5.10" departSpeed="15.87" departDelay="0.99" arrival="26464.00" arrivalLane="-690833056#0_0" arrivalPos="10.76" arrivalSpeed="8.77" duration="663.00" routeLength="3544.68" waitingTime="0.00" waitingCount="0" stopTime="45.00" timeLoss="183.23" rerouteNo="1" devices="tripinfo_flow_0_in.14 routing_flow_0_in.14 fcd_flow_0_in.14" vType="car" speedFactor="1.14" vaporized=""/>
    <tripinfo id="flow_10_in.26" depart="25771.00" departLane="-687674681_0" departPos="0.20" departSpeed="12.49" departDelay="0.19" arrival="26471.00" arrivalLane="-687674681_0" arrivalPos="0.20" arrivalSpeed="9.63" duration="700.00" routeLength="2852.51" waitingTime="16.00" waitingCount="5" stopTime="45.00" timeLoss="169.18" rerouteNo="1" devices="tripinfo_flow_10_in.26 routing_flow_10_in.26 fcd_flow_10_in.26" vType="car" speedFactor="0.90" vaporized=""/>
    <tripinfo id="flow_10_in.27" depart="25862.00" departLane="-687674681_0" departPos="0.20" departSpeed="13.47" departDelay="0.01" arrival="26554.00" arrivalLane="-687674681_0" arrivalPos="0.20" arrivalSpeed="8.21" duration="692.00" routeLength="2852.51" waitingTime="54.00" waitingCount="5" stopTime="45.00" timeLoss="194.87" rerouteNo="1" devices="tripinfo_flow_10_in.27 routing_flow_10_in.27 fcd_flow_10_in.27" vType="car" speedFactor="0.97" vaporized=""/>
    <tripinfo id="flow_10_in.28" depart="25954.00" departLane="-687674681_0" departPos="0.20" departSpeed="15.04" departDelay="0.82" arrival="26561.00" arrivalLane="-687674681_0" arrivalPos="0.20" arrivalSpeed="9.20" duration="607.00" routeLength="2917.72" waitingTime="24.00" waitingCount="4" stopTime="45.00" timeLoss="151.78" rerouteNo="1" devices="tripinfo_flow_10_in.28 routing_flow_10_in.28 fcd_flow_10_in.28" vType="car" speedFactor="1.08" vaporized=""/>