<?xml version="1.0" encoding="UTF-8"?>

<!-- generated on 2026-04-22T11:15:34.735100+02:00 by Eclipse SUMO sumo 1.26.0
<sumoConfiguration xmlns:xsi="http://www.w3.org/2001/XMLSchema-instance" xsi:noNamespaceSchemaLocation="http://sumo.dlr.de/xsd/sumoConfiguration.xsd">

    <input>
        <net-file value="C:\Users\neill\Github\tokai-sim\sim\sumo\bergvliet.net.xml"/>
        <route-files value="C:\Users\neill\Github\tokai-sim\sim\sumo\demand-L.rou.xml"/>
        <additional-files value="C:\Users\neill\Github\tokai-sim\sim\sumo\speed-humps.add.xml"/>
    </input>

    <output>
        <fcd-output value="C:\Users\neill\Github\tokai-sim\sim\sumo\fcd-L.xml"/>
        <tripinfo-output value="C:\Users\neill\Github\tokai-sim\sim\sumo\tripinfo-L.xml"/>
    </output>

    <time>
        <begin value="23400"/>
        <end value="32400"/>
        <step-length value="1"/>
    </time>

    <routing>
        <routing-algorithm value="astar"/>
        <device.rerouting.probability value="1.0"/>
        <device.rerouting.period value="60"/>
        <device.rerouting.pre-period value="0"/>
    </routing>

    <report>
        <no-warnings value="false"/>
        <no-step-log value="true"/>
    </report>

    <fcd_device>
        <device.fcd.period value="30"/>
    </fcd_device>

</sumoConfiguration>
-->

<tripinfos xmlns:xsi="http://www.w3.org/2001/XMLSchema-instance" xsi:noNamespaceSchemaLocation="http://sumo.dlr.de/xsd/tripinfo_file.xsd">
    <tripinfo id="flow_1_out.0" depart="23401.00" departLane="-27669895#0_0" departPos="5.10" departSpeed="9.91" departDelay="1.00" arrival="23545.00" arrivalLane="-687674693#1_0" arrivalPos="0.20" arrivalSpeed="3.83" duration="144.00" routeLength="1571.10" waitingTime="1.00" waitingCount="1" stopTime="0.00" timeLoss="35.10" rerouteNo="1" devices="tripinfo_flow_1_out.0 routing_flow_1_out.0 fcd_flow_1_out.0" vType="car" speedFactor="1.08" vaporized=""/>
    <tripinfo id="flow_0_out.0" depart="23400.00" departLane="-27669895#0_0" departPos="5.10" departSpeed="13.03" departDelay="0.00" arrival="23575.00" arrivalLane="-690833056#0_0" arrivalPos="10.76" arrivalSpeed="7.58" duration="175.00" routeLength="1674.47" waitingTime="0.00" waitingCount="0" stopTime="0.00" timeLoss="28.15" rerouteNo="1" devices="tripinfo_flow_0_out.0 routing_flow_0_out.0 fcd_flow_0_out.0" vType="car" speedFactor="0.94" vaporized=""/>
    <tripinfo id="flow_2_out.0" depart="23402.00" departLane="-27669895#0_0" departPos="5.10" departSpeed="4.89" departDelay="2.00" arrival="23592.00" arrivalLane="-687674681_0" arrivalPos="0.20" arrivalSpeed="9.85" duration="190.00" routeLength="1346.47" waitingTime="24.00" waitingCount="4" stopTime="0.00" timeLoss="65.82" rerouteNo="1" devices="tripinfo_flow_2_out.0 routing_flow_2_out.0 fcd_flow_2_out.0" vType="car" speedFactor="0.83" vaporized=""/>
    <tripinfo id="flow_3_out.0" depart="23404.00" departLane="-27669895#0_0" departPos="5.10" departSpeed="3.50" departDelay="4.00" arrival="23613.00" arrivalLane="27669864_0" arrivalPos="0.20" arrivalSpeed="3.03" duration="209.00" routeLength="2050.42" waitingTime="3.00" waitingCount="1" stopTime="0.00" timeLoss="44.22" rerouteNo="1" devices="tripinfo_flow_3_out.0 routing_flow_3_out.0 fcd_flow_3_out.0" vType="car" speedFactor="0.89" vaporized=""/>
    <tripinfo id="flow_2_out.1" depart="23514.00" departLane="-27669895#0_0" departPos="5.10" departSpeed="11.90" departDelay="0.00" arrival="23682.00" arrivalLane="-687674681_0" arrivalPos="0.20" arrivalSpeed="10.57" duration="168.00" routeLength="1346.47" waitingTime="11.00" waitingCount="4" stopTime="0.00" timeLoss="47.19" rerouteNo="1" devices="tripinfo_flow_2_out.1 routing_flow_2_out.1 fcd_flow_2_out.1" vType="car" speedFactor="0.86" vaporized=""/>
    <tripinfo id="flow_1_out.1" depart="23616.00" departLane="-27669895#0_0" departPos="5.10" departSpeed="10.89" departDelay="1.71" arrival="23758.00" arrivalLane="-687674693#1_0" arrivalPos="0.20" arrivalSpeed="4.10" duration="142.00" routeLength="1571.10" waitingTime="1.00" waitingCount="1" stopTime="0.00" timeLoss="35.44" rerouteNo="1" devices="tripinfo_flow_1_out.1 routing_flow_1_out.1 fcd_flow_1_out.1" vType="car" speedFactor="1.12" vaporized=""/>
    <tripinfo id="flow_2_out.2" depart="23628.00" departLane="-27669895#0_0" departPos="5.10" departSpeed="12.87" departDelay="0.01" arrival="23774.00" arrivalLane="-687674681_0" arrivalPos="0.20" arrivalSpeed="9.99" duration="146.00" routeLength="1346.47" waitingTime="3.00" waitingCount="3" stopTime="0.00" timeLoss="34.26" rerouteNo="1" devices="tripinfo_flow_2_out.2 routing_flow_2_out.2 fcd_flow_2_out.2" vType="car" speedFactor="0.93" vaporized=""/>
    <tripinfo id="flow_0_out.1" depart="23615.00" departLane="-27669895#0_0" departPos="5.10" departSpeed="14.26" departDelay="0.71" arrival="23775.00" arrivalLane="-690833056#0_0" arrivalPos="10.76" arrivalSpeed="9.65" duration="160.00" routeLength="1674.47" waitingTime="0.00" waitingCount="0" stopTime="0.00" timeLoss="26.28" rerouteNo="1" devices="tripinfo_flow_0_out.1 routing_flow_0_out.1 fcd_flow_0_out.1" vType="car" speedFactor="1.03" vaporized=""/>
    <tripinfo id="flow_1_in.0" depart="23400.00" departLane="-687674693#1_0" departPos="0.20" departSpeed="5.45" departDelay="0.00" arrival="23888.00" arrivalLane="school_internal_in_0" arrivalPos="343.55" arrivalSpeed="0.96" duration="488.00" routeLength="1578.11" waitingTime="2.00" waitingCount="2" stopTime="45.00" timeLoss="107.12" rerouteNo="1" devices="tripinfo_flow_1_in.0 routing_flow_1_in.0 fcd_flow_1_in.0" vType="car" speedFactor="1.01" vaporized=""/>
    <tripinfo id="flow_2_out.3" depart="23742.00" departLane="-27669895#0_0" departPos="5.10" departSpeed="13.08" departDelay="0.01" arrival="23889.00" arrivalLane="-687674681_0" arrivalPos="0.20" arrivalSpeed="10.33" duration="147.00" routeLength="1346.47" waitingTime="3.00" waitingCount="3" stopTime="0.00" timeLoss="37.19" rerouteNo="1" devices="tripinfo_flow_2_out.3 routing_flow_2_out.3 fcd_flow_2_out.3" vType="car" speedFactor="0.94" vaporized=""/>
    <tripinfo id="flow_2_in.0" depart="23400.00" departLane="-687674681_0" departPos="0.20" departSpeed="14.31" departDelay="0.00" arrival="23896.00" arrivalLane="school_internal_in_0" arrivalPos="343.55" arrivalSpeed="0.84" duration="496.00" routeLength="1632.21" waitingTime="1.00" waitingCount="1" stopTime="45.00" timeLoss="115.85" rerouteNo="1" devices="tripinfo_flow_2_in.0 routing_flow_2_in.0 fcd_flow_2_in.0" vType="car" speedFactor="1.03" vaporized=""/>
    <tripinfo id="flow_3_in.0" depart="23400.00" departLane="27669864_0" departPos="0.20" departSpeed="4.12" departDelay="0.00" arrival="23907.00" arrivalLane="school_internal_in_0" arrivalPos="343.55" arrivalSpeed="0.74" duration="507.00" routeLength="1768.33" waitingTime="1.00" waitingCount="1" stopTime="45.00" timeLoss="124.13" rerouteNo="1" devices="tripinfo_flow_3_in.0 routing_flow_3_in.0 fcd_flow_3_in.0" vType="car" speedFactor="1.05" vaporized=""/>
    <tripinfo id="flow_0_in.0" depart="23400.00" departLane="-690833056#0_0" departPos="5.10" departSpeed="14.72" departDelay="0.00" arrival="23915.00" arrivalLane="school_internal_in_0" arrivalPos="343.55" arrivalSpeed="1.07" duration="515.00" routeLength="1996.38" waitingTime="0.00" waitingCount="0" stopTime="45.00" timeLoss="119.58" rerouteNo="1" devices="tripinfo_flow_0_in.0 routing_flow_0_in.0 fcd_flow_0_in.0" vType="car" speedFactor="1.06" vaporized=""/>
    <tripinfo id="flow_0_out.2" depart="23829.00" departLane="-27669895#0_0" departPos="5.10" departSpeed="16.09" departDelay="0.43" arrival="23975.00" arrivalLane="-690833056#0_0" arrivalPos="10.76" arrivalSpeed="7.93" duration="146.00" routeLength="1674.47" waitingTime="0.00" waitingCount="0" stopTime="0.00" timeLoss="25.94" rerouteNo="1" devices="tripinfo_flow_0_out.2 routing_flow_0_out.2 fcd_flow_0_out.2" vType="car" speedFactor="1.16" vaporized=""/>
    <tripinfo id="flow_1_out.2" depart="23830.00" departLane="-27669895#0_0" departPos="5.10" departSpeed="13.16" departDelay="1.43" arrival="23988.00" arrivalLane="-687674693#1_0" arrivalPos="0.20" arrivalSpeed="2.97" duration="158.00" routeLength="1571.10" waitingTime="7.00" waitingCount="2" stopTime="0.00" timeLoss="42.75" rerouteNo="1" devices="tripinfo_flow_1_out.2 routing_flow_1_out.2 fcd_flow_1_out.2" vType="car" speedFactor="1.01" vaporized=""/>
    <tripinfo id="flow_2_in.1" depart="23514.00" departLane="-687674681_0" departPos="0.20" departSpeed="13.03" departDelay="0.00" arrival="24036.00" arrivalLane="school_internal_in_0" arrivalPos="343.55" arrivalSpeed="0.84" duration="522.00" routeLength="1632.21" waitingTime="1.00" waitingCount="1" stopTime="45.00" timeLoss="108.69" rerouteNo="1" devices="tripinfo_flow_2_in.1 routing_flow_2_in.1 fcd_flow_2_in.1" vType="car" speedFactor="0.94" vaporized=""/>
    <tripinfo id="flow_2_out.4" depart="23856.00" departLane="-27669895#0_0" departPos="5.10" departSpeed="12.36" departDelay="0.02" arrival="24041.00" arrivalLane="-687674681_0" arrivalPos="0.20" arrivalSpeed="10.50" duration="185.00" routeLength="1346.47" waitingTime="32.00" waitingCount="4" stopTime="0.00" timeLoss="69.27" rerouteNo="1" devices="tripinfo_flow_2_out.4 routing_flow_2_out.4 fcd_flow_2_out.4" vType="car" speedFactor="0.89" vaporized=""/>
    <tripinfo id="flow_1_in.1" depart="23615.00" departLane="-687674693#1_0" departPos="0.20" departSpeed="5.45" departDelay="0.71" arrival="24081.00" arrivalLane="school_internal_in_0" arrivalPos="343.55" arrivalSpeed="1.06" duration="466.00" routeLength="1578.11" waitingTime="1.00" waitingCount="1" stopTime="45.00" timeLoss="98.18" rerouteNo="1" devices="tripinfo_flow_1_in.1 routing_flow_1_in.1 fcd_flow_1_in.1" vType="car" speedFactor="1.05" vaporized=""/>
    <tripinfo id="flow_0_in.1" depart="23615.00" departLane="-690833056#0_0" departPos="5.10" departSpeed="15.15" departDelay="0.71" arrival="24090.00" arrivalLane="school_internal_in_0" arrivalPos="343.55" arrivalSpeed="1.16" duration="475.00" routeLength="1996.38" waitingTime="0.00" waitingCount="0" stopTime="45.00" timeLoss="89.44" rerouteNo="1" devices="tripinfo_flow_0_in.1 routing_flow_0_in.1 fcd_flow_0_in.1" vType="car" speedFactor="1.09" vaporized=""/>
    <tripinfo id="flow_2_out.5" depart="23970.00" departLane="-27669895#0_0" departPos="5.10" departSpeed="12.12" departDelay="0.02" arrival="24131.00" arrivalLane="-687674681_0" arrivalPos="0.20" arrivalSpeed="10.61" duration="161.00" routeLength="1346.47" waitingTime="10.00" waitingCount="4" stopTime="0.00" timeLoss="43.57" rerouteNo="1" devices="tripinfo_flow_2_out.5 routing_flow_2_out.5 fcd_flow_2_out.5" vType="car" speedFactor="0.87" vaporized=""/>
    <tripinfo id="flow_2_in.2" depart="23628.00" departLane="-687674681_0" departPos="0.20" departSpeed="0.00" departDelay="0.01" arrival="24182.00" arrivalLane="school_internal_in_0" arrivalPos="343.55" arrivalSpeed="1.14" duration="554.00" routeLength="1705.26" waitingTime="43.00" waitingCount="3" stopTime="45.00" timeLoss="153.98" rerouteNo="1" devices="tripinfo_flow_2_in.2 routing_flow_2_in.2 fcd_flow_2_in.2" vType="car" speedFactor="0.99" vaporized=""/>
    <tripinfo id="flow_1_out.3" depart="24044.00" departLane="-27669895#0_0" departPos="5.10" departSpeed="9.95" departDelay="1.14" arrival="24203.00" arrivalLane="-687674693#1_0" arrivalPos="0.20" arrivalSpeed="3.99" duration="159.00" routeLength="1571.10" waitingTime="1.00" waitingCount="1" stopTime="0.00" timeLoss="33.56" rerouteNo="1" devices="tripinfo_flow_1_out.3 routing_flow_1_out.3 fcd_flow_1_out.3" vType="car" speedFactor="0.93" vaporized=""/>
    <tripinfo id="flow_0_out.3" depart="24043.00" departLane="-27669895#0_0" departPos="5.10" departSpeed="13.18" departDelay="0.14" arrival="24215.00" arrivalLane="-690833056#0_0" arrivalPos="10.76" arrivalSpeed="7.21" duration="172.00" routeLength="1674.47" waitingTime="0.00" waitingCount="0" stopTime="0.00" timeLoss="27.85" rerouteNo="1" devices="tripinfo_flow_0_out.3 routing_flow_0_out.3 fcd_flow_0_out.3" vType="car" speedFactor="0.95" vaporized=""/>
    <tripinfo id="flow_2_out.6" depart="24084.00" departLane="-27669895#0_0" departPos="5.10" departSpeed="16.03" departDelay="0.02" arrival="24222.00" arrivalLane="-687674681_0" arrivalPos="0.20" arrivalSpeed="10.49" duration="138.00" routeLength="1338.63" waitingTime="7.00" waitingCount="3" stopTime="0.00" timeLoss="48.59" rerouteNo="1" devices="tripinfo_flow_2_out.6 routing_flow_2_out.6 fcd_flow_2_out.6" vType="car" speedFactor="1.15" vaporized=""/>
    <tripinfo id="flow_2_in.3" depart="23742.00" departLane="-687674681_0" departPos="0.20" departSpeed="0.00" departDelay="0.01" arrival="24322.00" arrivalLane="school_internal_in_0" arrivalPos="343.55" arrivalSpeed="0.74" duration="580.00" routeLength="1632.21" waitingTime="18.00" waitingCount="2" stopTime="45.00" timeLoss="141.53" rerouteNo="1" devices="tripinfo_flow_2_in.3 routing_flow_2_in.3 fcd_flow_2_in.3" vType="car" speedFactor="0.88" vaporized=""/>
    <tripinfo id="flow_2_out.7" depart="24198.00" departLane="-27669895#0_0" departPos="5.10" departSpeed="16.28" departDelay="0.03" arrival="24326.00" arrivalLane="-687674681_0" arrivalPos="0.20" arrivalSpeed="9.06" duration="128.00" routeLength="1338.63" waitingTime="2.00" waitingCount="2" stopTime="0.00" timeLoss="40.38" rerouteNo="1" devices="tripinfo_flow_2_out.7 routing_flow_2_out.7 fcd_flow_2_out.7" vType="car" speedFactor="1.17" vaporized=""/>
    <tripinfo id="flow_1_in.2" depart="23829.00" departLane="-687674693#1_0" departPos="0.20" departSpeed="5.45" departDelay="0.43" arrival="24330.00" arrivalLane="school_internal_in_0" arrivalPos="343.55" arrivalSpeed="1.34" duration="501.00" routeLength="1578.11" waitingTime="1.00" waitingCount="1" stopTime="45.00" timeLoss="123.66" rerouteNo="1" devices="tripinfo_flow_1_in.2 routing_flow_1_in.2 fcd_flow_1_in.2" vType="car" speedFactor="1.02" vaporized=""/>
    <tripinfo id="flow_0_in.2" depart="23829.00" departLane="-690833056#0_0" departPos="5.10" departSpeed="13.00" departDelay="0.43" arrival="24366.00" arrivalLane="school_internal_in_0" arrivalPos="343.55" arrivalSpeed="0.74" duration="537.00" routeLength="1996.38" waitingTime="0.00" waitingCount="0" stopTime="45.00" timeLoss="96.82" rerouteNo="1" devices="tripinfo_flow_0_in.2 routing_flow_0_in.2 fcd_flow_0_in.2" vType="car" speedFactor="0.94" vaporized=""/>
    <tripinfo id="flow_2_in.4" depart="23856.00" departLane="-687674681_0" departPos="0.20" departSpeed="13.54" departDelay="0.02" arrival="24374.00" arrivalLane="school_internal_in_0" arrivalPos="343.55" arrivalSpeed="1.28" duration="518.00" routeLength="1705.26" waitingTime="1.00" waitingCount="1" stopTime="45.00" timeLoss="112.93" rerouteNo="1" devices="tripinfo_flow_2_in.4 routing_flow_2_in.4 fcd_flow_2_in.4" vType="car" speedFactor="0.97" vaporized=""/>
    <tripinfo id="flow_1_out.4" depart="24259.00" departLane="-27669895#0_0" departPos="5.10" departSpeed="10.44" departDelay="1.86" arrival="24397.00" arrivalLane="-687674693#1_0" arrivalPos="0.20" arrivalSpeed="3.28" duration="138.00" routeLength="1571.10" waitingTime="1.00" waitingCount="1" stopTime="0.00" timeLoss="35.56" rerouteNo="1" devices="tripinfo_flow_1_out.4 routing_flow_1_out.4 fcd_flow_1_out.4" vType="car" speedFactor="1.18" vaporized=""/>
    <tripinfo id="flow_0_out.4" depart="24258.00" departLane="-27669895#0_0" departPos="5.10" departSpeed="14.16" departDelay="0.86" arrival="24420.00" arrivalLane="-690833056#0_0" arrivalPos="10.76" arrivalSpeed="7.10" duration="162.00" routeLength="1674.47" waitingTime="0.00" waitingCount="0" stopTime="0.00" timeLoss="26.86" rerouteNo="1" devices="tripinfo_flow_0_out.4 routing_flow_0_out.4 fcd_flow_0_out.4" vType="car" speedFactor="1.02" vaporized=""/>
    <tripinfo id="flow_2_out.8" depart="24312.00" departLane="-27669895#0_0" departPos="5.10" departSpeed="12.51" departDelay="0.03" arrival="24491.00" arrivalLane="-687674681_0" arrivalPos="0.20" arrivalSpeed="11.14" duration="179.00" routeLength="1346.47" waitingTime="26.00" waitingCount="5" stopTime="0.00" timeLoss="65.11" rerouteNo="1" devices="tripinfo_flow_2_out.8 routing_flow_2_out.8 fcd_flow_2_out.8" vType="car" speedFactor="0.90" vaporized=""/>
    <tripinfo id="flow_2_in.5" depart="23970.00" departLane="-687674681_0" departPos="0.20" departSpeed="11.47" departDelay="0.02" arrival="24558.00" arrivalLane="school_internal_in_0" arrivalPos="343.55" arrivalSpeed="0.92" duration="588.00" routeLength="1632.21" waitingTime="1.00" waitingCount="1" stopTime="45.00" timeLoss="124.50" rerouteNo="1" devices="tripinfo_flow_2_in.5 routing_flow_2_in.5 fcd_flow_2_in.5" vType="car" speedFactor="0.83" vaporized=""/>
    <tripinfo id="flow_1_in.3" depart="24043.00" departLane="-687674693#1_0" departPos="0.20" departSpeed="5.45" departDelay="0.14" arrival="24565.00" arrivalLane="school_internal_in_0" arrivalPos="343.55" arrivalSpeed="1.22" duration="522.00" routeLength="1578.11" waitingTime="1.00" waitingCount="1" stopTime="45.00" timeLoss="177.23" rerouteNo="1" devices="tripinfo_flow_1_in.3 routing_flow_1_in.3 fcd_flow_1_in.3" vType="car" speedFactor="1.13" vaporized=""/>
    <tripinfo id="flow_2_out.9" depart="24426.00" departLane="-27669895#0_0" departPos="5.10" departSpeed="13.29" departDelay="0.04" arrival="24581.00" arrivalLane="-687674681_0" arrivalPos="0.20" arrivalSpeed="10.86" duration="155.00" routeLength="1346.47" waitingTime="10.00" waitingCount="4" stopTime="0.00" timeLoss="47.80" rerouteNo="1" devices="tripinfo_flow_2_out.9 routing_flow_2_out.9 fcd_flow_2_out.9" vType="car" speedFactor="0.96" vaporized=""/>
    <tripinfo id="flow_0_in.3" depart="24043.00" departLane="-690833056#0_0" departPos="5.10" departSpeed="12.74" departDelay="0.14" arrival="24599.00" arrivalLane="school_internal_in_0" arrivalPos="343.55" arrivalSpeed="1.14" duration="556.00" routeLength="1996.38" waitingTime="0.00" waitingCount="0" stopTime="45.00" timeLoss="106.54" rerouteNo="1" devices="tripinfo_flow_0_in.3 routing_flow_0_in.3 fcd_flow_0_in.3" vType="car" speedFactor="0.92" vaporized=""/>
    <tripinfo id="flow_2_in.6" depart="24084.00" departLane="-687674681_0" departPos="0.20" departSpeed="0.00" departDelay="0.02" arrival="24606.00" arrivalLane="school_internal_in_0" arrivalPos="343.55" arrivalSpeed="1.62" duration="522.00" routeLength="1705.26" waitingTime="36.00" waitingCount="2" stopTime="45.00" timeLoss="179.21" rerouteNo="1" devices="tripinfo_flow_2_in.6 routing_flow_2_in.6 fcd_flow_2_in.6" vType="car" speedFactor="1.18" vaporized=""/>
    <tripinfo id="flow_1_out.5" depart="24473.00" departLane="-27669895#0_0" departPos="5.10" departSpeed="11.23" departDelay="1.57" arrival="24616.00" arrivalLane="-687674693#1_0" arrivalPos="0.20" arrivalSpeed="2.84" duration="143.00" routeLength="1571.10" waitingTime="1.00" waitingCount="1" stopTime="0.00" timeLoss="33.40" rerouteNo="1" devices="tripinfo_flow_1_out.5 routing_flow_1_out.5 fcd_flow_1_out.5" vType="car" speedFactor="1.09" vaporized=""/>
    <tripinfo id="flow_0_out.5" depart="24472.00" departLane="-27669895#0_0" departPos="5.10" departSpeed="14.42" departDelay="0.57" arrival="24631.00" arrivalLane="-690833056#0_0" arrivalPos="10.76" arrivalSpeed="9.20" duration="159.00" routeLength="1674.47" waitingTime="0.00" waitingCount="0" stopTime="0.00" timeLoss="26.34" rerouteNo="1" devices="tripinfo_flow_0_out.5 routing_flow_0_out.5 fcd_flow_0_out.5" vType="car" speedFactor="1.04" vaporized=""/>
    <tripinfo id="flow_2_out.10" depart="24540.00" departLane="-27669895#0_0" departPos="5.10" departSpeed="12.51" departDelay="0.04" arrival="24693.00" arrivalLane="-687674681_0" arrivalPos="0.20" arrivalSpeed="9.74" duration="153.00" routeLength="1346.47" waitingTime="3.00" waitingCount="3" stopTime="0.00" timeLoss="38.33" rerouteNo="1" devices="tripinfo_flow_2_out.10 routing_flow_2_out.10 fcd_flow_2_out.10" vType="car" speedFactor="0.90" vaporized=""/>
    <tripinfo id="flow_2_in.7" depart="24198.00" departLane="-687674681_0" departPos="0.20" departSpeed="0.00" departDelay="0.03" arrival="24709.00" arrivalLane="school_internal_in_0" arrivalPos="343.55" arrivalSpeed="1.00" duration="511.00" routeLength="1705.26" waitingTime="13.00" waitingCount="3" stopTime="45.00" timeLoss="115.12" rerouteNo="1" devices="tripinfo_flow_2_in.7 routing_flow_2_in.7 fcd_flow_2_in.7" vType="car" speedFactor="1.01" vaporized=""/>
    <tripinfo id="flow_1_in.4" depart="24258.00" departLane="-687674693#1_0" departPos="0.20" departSpeed="5.45" departDelay="0.86" arrival="24757.00" arrivalLane="school_internal_in_0" arrivalPos="343.55" arrivalSpeed="1.01" duration="499.00" routeLength="1578.11" waitingTime="1.00" waitingCount="1" stopTime="45.00" timeLoss="106.63" rerouteNo="1" devices="tripinfo_flow_1_in.4 routing_flow_1_in.4 fcd_flow_1_in.4" vType="car" speedFactor="0.97" vaporized=""/>
    <tripinfo id="flow_0_in.4" depart="24258.00" departLane="-690833056#0_0" departPos="5.10" departSpeed="13.82" departDelay="0.86" arrival="24773.00" arrivalLane="school_internal_in_0" arrivalPos="343.55" arrivalSpeed="1.25" duration="515.00" routeLength="1996.38" waitingTime="0.00" waitingCount="0" stopTime="45.00" timeLoss="97.63" rerouteNo="1" devices="tripinfo_flow_0_in.4 routing_flow_0_in.4 fcd_flow_0_in.4" vType="car" speedFactor="0.99" vaporized=""/>
    <tripinfo id="flow_2_in.8" depart="24312.00" departLane="-687674681_0" departPos="0.20" departSpeed="15.31" departDelay="0.03" arrival="24781.00" arrivalLane="school_internal_in_0" arrivalPos="343.55" arrivalSpeed="1.02" duration="469.00" routeLength="1705.26" waitingTime="1.00" waitingCount="1" stopTime="45.00" timeLoss="105.27" rerouteNo="1" devices="tripinfo_flow_2_in.8 routing_flow_2_in.8 fcd_flow_2_in.8" vType="car" speedFactor="1.10" vaporized=""/>
    <tripinfo id="flow_1_out.6" depart="24687.00" departLane="-27669895#0_0" departPos="5.10" departSpeed="13.30" departDelay="1.28" arrival="24826.00" arrivalLane="-687674693#1_0" arrivalPos="0.20" arrivalSpeed="3.62" duration="139.00" routeLength="1571.10" waitingTime="1.00" waitingCount="1" stopTime="0.00" timeLoss="31.65" rerouteNo="1" devices="tripinfo_flow_1_out.6 routing_flow_1_out.6 fcd_flow_1_out.6" vType="car" speedFactor="1.10" vaporized=""/>
    <tripinfo id="flow_0_out.6" depart="24686.00" departLane="-27669895#0_0" departPos="5.10" departSpeed="16.24" departDelay="0.28" arrival="24831.00" arrivalLane="-690833056#0_0" arrivalPos="10.76" arrivalSpeed="9.54" duration="145.00" routeLength="1674.47" waitingTime="0.00" waitingCount="0" stopTime="0.00" timeLoss="27.19" rerouteNo="1" devices="tripinfo_flow_0_out.6 routing_flow_0_out.6 fcd_flow_0_out.6" vType="car" speedFactor="1.17" vaporized=""/>
    <tripinfo id="flow_2_out.11" depart="24654.00" departLane="-27669895#0_0" departPos="5.10" departSpeed="11.81" departDelay="0.04" arrival="24853.00" arrivalLane="-687674681_0" arrivalPos="0.20" arrivalSpeed="10.30" duration="199.00" routeLength="1346.47" waitingTime="40.00" waitingCount="4" stopTime="0.00" timeLoss="76.80" rerouteNo="1" devices="tripinfo_flow_2_out.11 routing_flow_2_out.11 fcd_flow_2_out.11" vType="car" speedFactor="0.85" vaporized=""/>
    <tripinfo id="flow_2_in.9" depart="24426.00" departLane="-687674681_0" departPos="0.20" departSpeed="14.31" departDelay="0.04" arrival="24917.00" arrivalLane="school_internal_in_0" arrivalPos="343.55" arrivalSpeed="1.12" duration="491.00" routeLength="1632.21" waitingTime="1.00" waitingCount="1" stopTime="45.00" timeLoss="110.62" rerouteNo="1" devices="tripinfo_flow_2_in.9 routing_flow_2_in.9 fcd_flow_2_in.9" vType="car" speedFactor="1.03" vaporized=""/>
    <tripinfo id="flow_2_out.12" depart="24768.00" departLane="-27669895#0_0" departPos="5.10" departSpeed="13.83" departDelay="0.05" arrival="24942.00" arrivalLane="-687674681_0" arrivalPos="0.20" arrivalSpeed="10.70" duration="174.00" routeLength="1338.63" waitingTime="32.00" waitingCount="3" stopTime="0.00" timeLoss="71.13" rerouteNo="1" devices="tripinfo_flow_2_out.12 routing_flow_2_out.12 fcd_flow_2_out.12" vType="car" speedFactor="1.00" vaporized=""/>
    <tripinfo id="flow_1_in.5" depart="24472.00" departLane="-687674693#1_0" departPos="0.20" departSpeed="5.45" departDelay="0.57" arrival="24944.00" arrivalLane="school_internal_in_0" arrivalPos="343.55" arrivalSpeed="1.31" duration="472.00" routeLength="1578.11" waitingTime="1.00" waitingCount="1" stopTime="45.00" timeLoss="102.22" rerouteNo="1" devices="tripinfo_flow_1_in.5 routing_flow_1_in.5 fcd_flow_1_in.5" vType="car" speedFactor="1.04" vaporized=""/>
    <tripinfo id="flow_0_in.5" depart="24472.00" departLane="-690833056#0_0" departPos="5.10" departSpeed="15.17" departDelay="0.57" arrival="24952.00" arrivalLane="school_internal_in_0" arrivalPos="343.55" arrivalSpeed="0.97" duration="480.00" routeLength="1996.38" waitingTime="1.00" waitingCount="1" stopTime="45.00" timeLoss="96.02" rerouteNo="1" devices="tripinfo_flow_0_in.5 routing_flow_0_in.5 fcd_flow_0_in.5" vType="car" speedFactor="1.09" vaporized=""/>
    <tripinfo id="flow_2_out.13" depart="24882.00" departLane="-27669895#0_0" departPos="5.10" departSpeed="15.87" departDelay="0.05" arrival="25030.00" arrivalLane="-687674681_0" arrivalPos="0.20" arrivalSpeed="9.66" duration="148.00" routeLength="1346.47" waitingTime="13.00" waitingCount="4" stopTime="0.00" timeLoss="57.90" rerouteNo="2" devices="tripinfo_flow_2_out.13 routing_flow_2_out.13 fcd_flow_2_out.13" vType="car" speedFactor="1.14" vaporized=""/>
    <tripinfo id="flow_1_out.7" depart="24902.00" departLane="-27669895#0_0" departPos="5.10" departSpeed="9.81" departDelay="2.00" arrival="25053.00" arrivalLane="-687674693#1_0" arrivalPos="0.20" arrivalSpeed="3.59" duration="151.00" routeLength="1571.10" waitingTime="5.00" waitingCount="2" stopTime="0.00" timeLoss="45.05" rerouteNo="1" devices="tripinfo_flow_1_out.7 routing_flow_1_out.7 fcd_flow_1_out.7" vType="car" speedFactor="1.12" vaporized=""/>
    <tripinfo id="flow_2_in.10" depart="24540.00" departLane="-687674681_0" departPos="0.20" departSpeed="0.00" departDelay="0.04" arrival="25069.00" arrivalLane="school_internal_in_0" arrivalPos="343.55" arrivalSpeed="0.91" duration="529.00" routeLength="1705.26" waitingTime="30.00" waitingCount="2" stopTime="45.00" timeLoss="131.45" rerouteNo="1" devices="tripinfo_flow_2_in.10 routing_flow_2_in.10 fcd_flow_2_in.10" vType="car" speedFactor="1.00" vaporized=""/>
    <tripinfo id="flow_0_out.7" depart="24901.00" departLane="-27669895#0_0" departPos="5.10" departSpeed="13.47" departDelay="1.00" arrival="25071.00" arrivalLane="-690833056#0_0" arrivalPos="10.76" arrivalSpeed="8.45" duration="170.00" routeLength="1674.47" waitingTime="0.00" waitingCount="0" stopTime="0.00" timeLoss="27.98" rerouteNo="1" devices="tripinfo_flow_0_out.7 routing_flow_0_out.7 fcd_flow_0_out.7" vType="car" speedFactor="0.97" vaporized=""/>
    <tripinfo id="flow_2_out.14" depart="24996.00" departLane="-27669895#0_0" departPos="5.10" departSpeed="13.71" departDelay="0.06" arrival="25138.00" arrivalLane="-687674681_0" arrivalPos="0.20" arrivalSpeed="10.80" duration="142.00" routeLength="1346.47" waitingTime="3.00" waitingCount="3" stopTime="0.00" timeLoss="38.51" rerouteNo="1" devices="tripinfo_flow_2_out.14 routing_flow_2_out.14 fcd_flow_2_out.14" vType="car" speedFactor="0.99" vaporized=""/>
    <tripinfo id="flow_1_in.6" depart="24686.00" departLane="-687674693#1_0" departPos="0.20" departSpeed="5.45" departDelay="0.28" arrival="25172.00" arrivalLane="school_internal_in_0" arrivalPos="343.55" arrivalSpeed="1.22" duration="486.00" routeLength="1578.11" waitingTime="1.00" waitingCount="1" stopTime="45.00" timeLoss="108.16" rerouteNo="1" devices="tripinfo_flow_1_in.6 routing_flow_1_in.6 fcd_flow_1_in.6" vType="car" speedFactor="1.02" vaporized=""/>
    <tripinfo id="flow_2_in.11" depart="24654.00" departLane="-687674681_0" departPos="0.20" departSpeed="0.00" departDelay="0.04" arrival="25228.00" arrivalLane="school_internal_in_0" arrivalPos="343.55" arrivalSpeed="1.02" duration="574.00" routeLength="1632.21" waitingTime="11.00" waitingCount="3" stopTime="45.00" timeLoss="134.37" rerouteNo="1" devices="tripinfo_flow_2_in.11 routing_flow_2_in.11 fcd_flow_2_in.11" vType="car" speedFactor="0.88" vaporized=""/>
    <tripinfo id="flow_1_out.8" depart="25116.00" departLane="-27669895#0_0" departPos="5.10" departSpeed="9.90" departDelay="1.71" arrival="25269.00" arrivalLane="-687674693#1_0" arrivalPos="0.20" arrivalSpeed="3.14" duration="153.00" routeLength="1571.10" waitingTime="1.00" waitingCount="1" stopTime="0.00" timeLoss="38.02" rerouteNo="1" devices="tripinfo_flow_1_out.8 routing_flow_1_out.8 fcd_flow_1_out.8" vType="car" speedFactor="1.02" vaporized=""/>
    <tripinfo id="flow_0_in.6" depart="24686.00" departLane="-690833056#0_0" departPos="5.10" departSpeed="11.87" departDelay="0.28" arrival="25286.00" arrivalLane="school_internal_in_0" arrivalPos="343.55" arrivalSpeed="0.64" duration="600.00" routeLength="1996.38" waitingTime="0.00" waitingCount="0" stopTime="45.00" timeLoss="122.14" rerouteNo="1" devices="tripinfo_flow_0_in.6 routing_flow_0_in.6 fcd_flow_0_in.6" vType="car" speedFactor="0.85" vaporized=""/>
    <tripinfo id="flow_2_in.12" depart="24768.00" departLane="-687674681_0" departPos="0.20" departSpeed="13.93" departDelay="0.05" arrival="25296.00" arrivalLane="school_internal_in_0" arrivalPos="343.55" arrivalSpeed="1.13" duration="528.00" routeLength="1705.26" waitingTime="1.00" waitingCount="1" stopTime="45.00" timeLoss="132.53" rerouteNo="1" devices="tripinfo_flow_2_in.12 routing_flow_2_in.12 fcd_flow_2_in.12" vType="car" speedFactor="1.00" vaporized=""/>